% Model:              Estacionari 1 - Heat transfer nanoscale.mph
% Version:            COMSOL 5.4.0.388
% Date:               Jul 26 2024, 11:00
% Dimension:          2
% Nodes:              140
% Expressions:        1
% Description:        Inward heat flux, X component
% Length unit:        m
% X                       Y                        qX (W/m^2)
2.5E-8                    3.053252344487874E-8     1.7340655535780454E8
2.5E-8                    2.693020741243293E-8     1.70848832326243E8
2.5E-8                    0                        1.5000066812984315E8
2.5E-8                    6.961219121076863E-8     1.9811043570745957E8
2.5E-8                    6.071238653905582E-8     1.9294683183701062E8
2.5E-8                    1.1358422448700419E-7    2.2019249048914248E8
2.5E-8                    1.0265388436761719E-7    2.151986763708435E8
2.4999999999999996E-8     1.5776017877921183E-7    2.375603104750398E8
2.4999999999999996E-8     1.4562895756162002E-7    2.3320914565062937E8
2.4999999999999996E-8     2.0148333193732892E-7    2.510255713803633E8
2.4999999999999996E-8     1.8896599206392007E-7    2.475001385541032E8
2.5E-8                    2.4516183486865827E-7    2.6157759470067582E8
2.5E-8                    2.3256174566489068E-7    2.5879280600476742E8
2.5000000000000002E-8     2.88825199049675E-7      2.698535424162609E8
2.5000000000000002E-8     2.762005271636117E-7     2.676641563501516E8
2.5E-8                    3.3236015725899354E-7    2.763300268419219E8
2.5E-8                    3.197388279789164E-7     2.7461144810461396E8
2.5E-8                    3.7585643782943835E-7    2.814111422908088E8
2.5E-8                    3.6324808276870183E-7    2.800629181748133E8
2.5E-8                    4.1934434899061254E-7    2.8540082549278617E8
2.5E-8                    4.067333331350025E-7     2.843417403182273E8
2.5E-8                    4.628254684265338E-7     2.885337587382617E8
2.5E-8                    4.5021489787234264E-7    2.8770198728921175E8
2.5E-8                    5.063050257232243E-7     2.9099427318023896E8
2.5E-8                    4.936944439671194E-7     2.903409974272196E8
2.5E-8                    5.497835929172215E-7     2.9292672470733845E8
2.5E-8                    5.37172954213118E-7      2.9241363663973004E8
2.5E-8                    5.932618420325557E-7     2.944444658601705E8
2.5E-8                    5.806512159686321E-7     2.940414861752608E8
2.5E-8                    6.367400889042055E-7     2.9563649536857504E8
2.5E-8                    6.241294678094445E-7     2.9531999760882723E8
2.5E-8                    6.802183436234273E-7     2.9657270021049005E8
2.5E-8                    6.676077152072574E-7     2.9632412833569574E8
2.4999999999999996E-8     7.236966116324804E-7     2.973079684553592E8
2.4999999999999996E-8     7.11085967853677E-7      2.9711274907766944E8
2.5E-8                    7.671748866772478E-7     2.9788540740521973E8
2.5E-8                    7.545642295621748E-7     2.97732095293056E8
2.5000000000000002E-8     8.106531582890062E-7     2.983388711779291E8
2.5000000000000002E-8     7.980424958142501E-7     2.982184780558932E8
2.5E-8                    8.541314221937781E-7     2.9869494559440535E8
2.5E-8                    8.415207615336722E-7     2.986004130913202E8
2.5E-8                    8.97609680914831E-7      2.9897450676336247E8
2.5E-8                    8.849990257182108E-7     2.9890029260944074E8
2.4999999999999996E-8     9.410879367925548E-7     2.9919394492432725E8
2.4999999999999996E-8     9.284772870856958E-7     2.991356980502624E8
2.5000000000000002E-8     9.84566191821035E-7      2.993661253892168E8
2.5000000000000002E-8     9.71955544433797E-7      2.993204308524383E8
2.5E-8                    1.0280444505149757E-6    2.9950114282894444E8
2.5E-8                    1.0154338005196003E-6    2.9946532161612886E8
2.5E-8                    1.0715227155492943E-6    2.996069130924698E8
2.5E-8                    1.0589120604165698E-6    2.9957886506332797E8
2.4999999999999996E-8     1.1150009845749006E-6    2.9968963730457544E8
2.4999999999999996E-8     1.1023903274000018E-6    2.996677180602571E8
2.5E-8                    1.1584792525592204E-6    2.997541654417728E8
2.5E-8                    1.1458686014242778E-6    2.997370899048536E8
2.5000000000000002E-8     1.201957514490071E-6     2.9980428068200064E8
2.5000000000000002E-8     1.1893468800633553E-6    2.9979104774782026E8
2.5000000000000002E-8     1.2454357653226937E-6    2.998429212029131E8
2.5000000000000002E-8     1.2328251569237801E-6    2.99832755043408E8
2.5E-8                    1.2889140028034398E-6    2.9987235244185126E8
2.5E-8                    1.2763034207898528E-6    2.998646570194539E8
2.5E-8                    1.3323922361765462E-6    2.9989429991495013E8
2.5E-8                    1.3197816659855704E-6    2.9988862404320294E8
2.4999999999999996E-8     1.3758704857051568E-6    2.9991005037387586E8
2.4999999999999996E-8     1.3632599045113275E-6    2.9990606127519107E8
2.5E-8                    1.419348760906662E-6     2.999205272376527E8
2.5E-8                    1.4067381558784617E-6    2.9991799103856E8
2.5E-8                    1.462827045937792E-6     2.9992634473803985E8
2.5E-8                    1.4502164246930267E-6    2.999251127515829E8
2.5E-8                    1.5063053174595463E-6    2.9992784394350725E8
2.5E-8                    1.493694695736336E-6     2.999278439433305E8
2.5E-8                    1.5497835706101522E-6    2.9992511275463396E8
2.5E-8                    1.5371729546873205E-6    2.9992634473991096E8
2.5E-8                    1.5932618211359678E-6    2.9991799104847616E8
2.5E-8                    1.5806512043428135E-6    2.999205272482619E8
2.5E-8                    1.6367400817953715E-6    2.999060612876116E8
2.5E-8                    1.624129453847143E-6     2.999100503989059E8
2.5E-8                    1.6802183515530666E-6    2.9988862404608244E8
2.5E-8                    1.6676077084127997E-6    2.998942999489491E8
2.5000000000000002E-8     1.7236966239718469E-6    2.998646570060245E8
2.5000000000000002E-8     1.7110859679241778E-6    2.9987235247278315E8
2.4999999999999996E-8     1.7671748933480044E-6    2.998327550213665E8
2.4999999999999996E-8     1.7545642296237015E-6    2.998429212254056E8
2.5E-8                    1.810653158584063E-6     2.9979104773199743E8
2.5E-8                    1.7980424917279205E-6    2.9980428070002013E8
2.5E-8                    1.8541314207879382E-6    2.997370899078699E8
2.5E-8                    1.8415207531291093E-6    2.997541654660968E8
2.5000000000000002E-8     1.897609681660851E-6     2.99667718088393E8
2.5000000000000002E-8     1.884999014005871E-6     2.9968963734823173E8
2.4999999999999996E-8     1.9410879425420876E-6    2.995788651142163E8
2.4999999999999996E-8     1.9284772748999477E-6    2.9960691316646826E8
2.5E-8                    1.9845662034499354E-6    2.9946532167919046E8
2.5E-8                    1.9719555358489245E-6    2.995011429357069E8
2.4999999999999996E-8     2.028044464435812E-6     2.993204309158063E8
2.4999999999999996E-8     2.015433796960768E-6     2.99366125518217E8
2.5E-8                    2.0715227256253434E-6    2.991356981137685E8
2.5E-8                    2.0589120585173197E-6    2.991939450608994E8
2.5E-8                    2.11500098726397E-6      2.9890029268868893E8
2.5E-8                    2.1023903211657435E-6    2.9897450689932054E8
2.4999999999999996E-8     2.158479249652727E-6     2.9860041320278805E8
2.4999999999999996E-8     2.145868586143073E-6     2.986949457201566E8
2.5E-8                    2.2019575127069408E-6    2.982184782130247E8
2.5E-8                    2.1893468552199996E-6    2.9833887128216857E8
2.5E-8                    2.245435775239356E-6     2.9773209551260173E8
2.5E-8                    2.2328251299165473E-6    2.978854074801221E8
2.4999999999999996E-8     2.288914036181459E-6     2.9711274931138015E8
2.4999999999999996E-8     2.2763034115446074E-6    2.9730796840471476E8
2.5E-8                    2.3323923026185053E-6    2.96324128240352E8
2.5E-8                    2.319781708603873E-6     2.965726994987048E8
2.5E-8                    2.375870606732211E-6     2.953199958167898E8
2.5E-8                    2.3632600606413876E-6    2.9563649193164575E8
2.5E-8                    2.419349030673124E-6     2.9404147787140065E8
2.5E-8                    2.406738583910689E-6     2.944444526596016E8
2.5E-8                    2.4628277412601027E-6    2.924136065920699E8
2.5E-8                    2.4502175394807836E-6    2.92926679643574E8
2.5E-8                    2.5063070235414758E-6    2.90340916756609E8
2.5E-8                    2.4936974274467714E-6    2.909941488477855E8
2.4999999999999996E-8     2.5497871982495385E-6    2.8770184091517735E8
2.4999999999999996E-8     2.5371791145214274E-6    2.8853346366858095E8
2.5E-8                    2.593268840253213E-6     2.843415489008711E8
2.5E-8                    2.5806648516843545E-6    2.8540007554777527E8
2.4999999999999996E-8     2.636751623361379E-6     2.800629487840689E8
2.4999999999999996E-8     2.624161324201002E-6     2.8140930556486243E8
2.5E-8                    2.6802500214528868E-6    2.74613018080468E8
2.5E-8                    2.6676591309329543E-6    2.76327487851247E8
2.5E-8                    2.7238222787631295E-6    2.6766005136886778E8
2.5E-8                    2.7111573789369736E-6    2.698564601663752E8
2.5E-8                    2.76743343332942E-6      2.5879391325761873E8
2.5E-8                    2.7548130711165466E-6    2.6158293296325886E8
2.5E-8                    2.8111521392713635E-6    2.4746571761538342E8
2.5E-8                    2.7986646201321884E-6    2.509853927222552E8
2.5E-8                    2.8541677874245836E-6    2.332837440595093E8
2.5E-8                    2.842160720244108E-6     2.375876615812852E8
2.4999999999999996E-8     2.8956490796159807E-6    2.159931243884412E8
2.4999999999999996E-8     2.884596575121125E-6     2.2099430071756145E8
2.5E-8                    2.942289768874193E-6     1.911450252320165E8
2.5E-8                    2.927230355609606E-6     1.998804080409813E8
2.4999999999999996E-8     2.9755897860381816E-6    1.6902515872591972E8
2.4999999999999996E-8     2.9700735284205708E-6    1.7297786380112693E8
2.5000000000000002E-8     3.0E-6                   1.4999744725678244E8
