% Model:              Post reunió 7 - Tau nula - grafica k vs ell - parametrics no tan heavy.mph
% Version:            COMSOL 5.4.0.388
% Date:               Jul 28 2024, 11:31
% Table:              Table 1 - Point Evaluation Fourier 1 (T_F)
% Time (s)               k=1, Temperature (K), Point: (7.5E-8, 5E-8)k=2, Temperature (K), Point: (7.5E-8, 5E-8)k=3, Temperature (K), Point: (7.5E-8, 5E-8)k=4, Temperature (K), Point: (7.5E-8, 5E-8)k=5, Temperature (K), Point: (7.5E-8, 5E-8)k=6, Temperature (K), Point: (7.5E-8, 5E-8)k=7, Temperature (K), Point: (7.5E-8, 5E-8)k=8, Temperature (K), Point: (7.5E-8, 5E-8)k=9, Temperature (K), Point: (7.5E-8, 5E-8)k=10, Temperature (K), Point: (7.5E-8, 5E-8)k=11, Temperature (K), Point: (7.5E-8, 5E-8)k=12, Temperature (K), Point: (7.5E-8, 5E-8)k=13, Temperature (K), Point: (7.5E-8, 5E-8)k=14, Temperature (K), Point: (7.5E-8, 5E-8)k=15, Temperature (K), Point: (7.5E-8, 5E-8)
0                        0.9999947186926392       0.9999895388024349       0.9999843588510793       0.9999791788492094       0.9999739988061234       0.9999688187299518       0.9999636386278388       0.9999584585060717       0.9999532783702128       0.9999480982251826       0.9999429180753607       0.9999377379246517       0.9999325577765419       0.9999273776341593       0.999922197500303
1.0E-11                  0.9972579192174581       0.9945246044853118       0.9918002191106081       0.9890844787228015       0.9863768155663826       0.9836766040578834       0.9809926149524699       0.9783293609178703       0.9756790604825964       0.9730393794811931       0.970408102566068        0.9677833420098649       0.965164217514015        0.9625483028457296       0.9599353047258713
2.0E-11                  0.9945313940669369       0.9891000431233747       0.9837070954354967       0.9783507369792369       0.9730472265641368       0.9677607704655736       0.9625351640586224       0.9573872409704294       0.9522866272261066       0.9472243836727796       0.9421922434596279       0.9371832720387627       0.9321925842811831       0.927214701174822        0.9222469998035474
3.0E-11                  0.9918178011305927       0.9837287940069133       0.9757428064290914       0.9678442406299816       0.9600587273810041       0.9523436908947998       0.944704021538496        0.9371267526465281       0.9295985973868968       0.9221077094881223       0.9146444209555883       0.9075226693410341       0.9006002274546994       0.8937293260715733       0.8868986481783608
4.0E-11                  0.9891081972138944       0.978367013108125        0.9678049873588267       0.9573823379681206       0.9471162705683656       0.9369490014253663       0.9270085898253495       0.9173534835313389       0.907868632553244        0.8985205502876967       0.8892789603290223       0.880118830266903        0.871021053207929        0.8619694076727407       0.8529530924602442
4.9999999999999995E-11   0.9864142388939832       0.9730939911710806       0.9600435463680954       0.9472324301716959       0.9347081335228407       0.9224353353388643       0.9104098708939568       0.8985970612217706       0.8869565116105557       0.8754498667030517       0.8640446198284182       0.852714991192772        0.8414418789611586       0.8302094892739078       0.8195121057018073
6.0E-11                  0.9837359385682283       0.9678614096474336       0.9523788633163717       0.9372436158514724       0.9224738741766165       0.9080055114612372       0.8938111519625638       0.8798406389122023       0.8660443906678672       0.8523791831184064       0.8388102793278138       0.8259020463558702       0.813380384121368        0.8009679257336373       0.788638946991189
6.999999999999999E-11    0.9810576382424732       0.9626288281237869       0.9447141802646479       0.927254801531249        0.9102396148303926       0.8935756875836103       0.8772124330311708       0.8610842166026342       0.8452622440845705       0.8302442973326366       0.8154656274571426       0.800868159605127        0.7864074050649452       0.7720482607889438       0.7577657882805707
8.0E-11                  0.9783793379167183       0.95739624660014         0.9370494972129242       0.9172659872110254       0.8980053554841685       0.8791458637059832       0.8608677769530364       0.8432349443672627       0.8259962562640841       0.8090636029820104       0.7923625621386199       0.7758342728543839       0.7594344260085226       0.7439821517153685       0.7289783763959671
9.0E-11                  0.9757010375909633       0.9522516175014091       0.929533397189907        0.9075527456984154       0.8861136530628684       0.8654673498314043       0.8454226619988956       0.8258787271112945       0.8067302684435976       0.7878829086313842       0.769259496820097        0.7516101646887654       0.7345376176576743       0.7176490329766364       0.7008998522881356
9.999999999999999E-11    0.9730899583515734       0.9472542127107199       0.9223784265880166       0.8984278749324243       0.874552450410071        0.8519468715257912       0.8299775470447548       0.8085225098553264       0.7874642806231111       0.7671233840909355       0.7477761051453329       0.7287415121636314       0.7099414717595258       0.6913159142379041       0.6731827778861627
1.1E-10                  0.9704789057447442       0.9422568079200304       0.9152234559861263       0.8893030041664333       0.8629912477572736       0.8384263932201783       0.814532432090614        0.7911662925993581       0.7691362832570836       0.7476780348354691       0.7266245234080655       0.7058728596384974       0.6854897513238288       0.6658873780512985       0.646737027279326
1.2E-10                  0.9678678531379148       0.9372594031293413       0.9080684853842358       0.8801781334004422       0.8514300451044762       0.8249059149145653       0.7994419585751544       0.7750693456189414       0.7513870091256474       0.7282326855800026       0.7054729416707982       0.6834459334922254       0.6621261457359919       0.641346896208207        0.6210926786690275
1.3E-10                  0.9652568005310855       0.932261998338652        0.9009135147823455       0.8710532626344512       0.8401848306718824       0.8120154139654348       0.7850703726550415       0.759008934980371        0.7336377349942114       0.7087873363245364       0.6849824829615689       0.6618565860424982       0.6393729846057673       0.617508950596041        0.5962497320552672
1.3999999999999998E-10   0.9626457479242561       0.9272645935479629       0.8937585441804552       0.8619283918684602       0.8298231178185055       0.7993470459531836       0.7706987867349289       0.7429485243418005       0.7159767331570062       0.690128569734786        0.6650816883279811       0.6407923352361226       0.6172302679331548       0.5943735412148003       0.5722081874380449
1.5E-10                  0.9600346953174266       0.9222671887572735       0.8866035735785649       0.8528035211024689       0.8194614049651285       0.7866786779409323       0.7563272008148161       0.7270348826755553       0.6989653241802054       0.6718501489100825       0.6456273431334165       0.6202531810730985       0.5956979957181547       0.5719406680644852       0.5490553262113376
1.6E-10                  0.9574236427105973       0.9172697839665841       0.8794486029766744       0.8436786503364779       0.8090996921117515       0.7740103099286809       0.7421435491925802       0.7116326541497562       0.68226288126582         0.6539461655247488       0.6266194473778753       0.600239123553426        0.5747761679607668       0.5503232390992523       0.5268433696683931
1.6999999999999998E-10   0.9548125901037681       0.9122723791758949       0.8722936323747841       0.8345537795704869       0.7987379792583746       0.7615741784665766       0.7283405621267048       0.6964803266136884       0.6658694044138497       0.6364166195787847       0.6080580010613575       0.5807501626771052       0.554585729235871        0.5295157004447          0.5054993096765987
1.8E-10                  0.9522015374969387       0.9075963974052567       0.8654175974647473       0.8259352705790785       0.7883762664049974       0.749385883182603        0.7147346350773696       0.6815779000673521       0.6497848936242948       0.6192615110721903       0.5899430041838628       0.5618987751158611       0.535092578668529        0.5094699613935529       0.4850231462359551
1.9E-10                  0.9497125946694793       0.9030287204806557       0.8587410697781699       0.8176041428442833       0.7780145535516205       0.7373478046533891       0.7013257680445744       0.6669253745107472       0.634009348897155        0.6024808400049654       0.5723649880333883       0.5436508277834418       0.516262399549101        0.4901860219458113       0.4654148793464621
1.9999999999999998E-10   0.9472237486385833       0.8984610435560547       0.8520645420915923       0.809273015109488        0.7676528406982436       0.7254599428789352       0.6881139610283191       0.6525227499438737       0.6185427702324305       0.5861343148767038       0.5553136900727609       0.5259742554131849       0.49809519187758733      0.471663882101475        0.4464886537879359
2.1E-10                  0.9447349026076868       0.8938933666314537       0.8453880144050148       0.8009418873746926       0.7572911278448664       0.7137222978592407       0.6750992140286038       0.6383700263667317       0.6034108577591744       0.5702516658473062       0.5387493479628369       0.508869058005091        0.48059095565398774      0.4537658471931022       0.4282479084430528
2.2E-10                  0.9422460565767907       0.8893256897068527       0.8387114867184373       0.7926107596398974       0.7476899875343174       0.7021348695943062       0.662281527045429        0.6244672037793209       0.58868945731661         0.554778648446095        0.5226719617036166       0.4923352355591596       0.463677817619921        0.4364465940457291       0.4107720406524117
2.2999999999999998E-10   0.9397572105458945       0.8847580127822519       0.8320349590318596       0.7842796319051022       0.7383129715914093       0.6906976580841312       0.649660900078794        0.6109153835310076       0.5743073384403096       0.5397152626730704       0.5070815312950997       0.476372788075391        0.44723081118293173      0.4198001360074217       0.39406105041601197
2.4E-10                  0.9372683645149984       0.8801903358576509       0.8253584313452821       0.7759485041703069       0.7289359556485011       0.6794106633287158       0.6372977921167172       0.5976446088719548       0.5602645011302727       0.5250615085282321       0.49197805673728623      0.46076687448465065      0.4313708293499193       0.40382647307817987      0.37811493773385396
2.4999999999999996E-10   0.9347795184841021       0.8756226589330499       0.8186819036587045       0.7676173764355116       0.719558939705593        0.6683107281792965       0.6251807968396753       0.5846495661361569       0.5465609453864995       0.51081738601158         0.4772656007995787       0.4456679948332066       0.416097872120884        0.388525605258004        0.3626517951184726
2.6E-10                  0.9322906724532058       0.871054982008449        0.8120053759721271       0.7592862487007164       0.710181923762685        0.6574142973410891       0.6132825445435968       0.5719302553236137       0.53319667120899         0.49698289512311444      0.4629197579358384       0.43107664274333124      0.40141193949582565      0.37377085600798526      0.34778159820231497
2.7E-10                  0.9298018264223096       0.866487305083848        0.805719308542259        0.7516486709238718       0.7008049078197769       0.6466858761670343       0.6016030352284814       0.5594866764343254       0.520171678597744        0.48340192688454914      0.44900816166718027      0.41699281821502465      0.387313031474744        0.3594477012490399       0.33355489959076756
2.7999999999999996E-10   0.9273129803914135       0.8619196281592472       0.7994892707312808       0.7440423220244766       0.6914278918768687       0.6361254646571324       0.5901422688943295       0.5473188294682918       0.5074478603543824       0.4701853671740102       0.4355308119936044       0.4034165212482867       0.37353997143164996      0.34569193251835584      0.31997169928383035
2.9E-10                  0.9248241343605172       0.8573519512346461       0.7932592329203026       0.7364359731250811       0.6821669841610193       0.6257330628113831       0.5789002455411407       0.5354267144255132       0.4949588350799725       0.4573359008690898       0.42248770891511056      0.3902910091374553       0.36024210652344435      0.3325035498159329       0.30703199728150343
3.0E-10                  0.9223352883296211       0.8527842743100451       0.7870291951093242       0.728829624225686        0.6736800012011415       0.6155086706297866       0.5678769651689155       0.523751248622744        0.48277574616669827      0.4448535279697883       0.40987885243169886      0.37745187921914336      0.34744074193771635      0.31988255314177116      0.2944164825874563
3.0999999999999996E-10   0.9198464422987249       0.8482165973854441       0.7807991572983461       0.7212232753262908       0.6651930182412638       0.6054522881123429       0.5570724277776535       0.5122906948357766       0.47089859361455977      0.4327382484761054       0.3976134796921687       0.36504355403079647      0.33513587767446623      0.307744644859251        0.2823291991003825
3.2E-10                  0.9173575962678288       0.843648920460843        0.7745691194873678       0.7136169264268953       0.6567060352813859       0.5955639152590518       0.5463565221100761       0.501080723206441        0.45932737742355706      0.42099006238804126      0.38561775038051216      0.3530660335724144       0.3233275137336937       0.2959309844904005       0.27077407629501143
3.3E-10                  0.9148687502369325       0.839081243536242        0.7683390816763895       0.7060105775275001       0.6482190523215081       0.5858135592614049       0.5358096972680437       0.4901213337347369       0.4480620975936899       0.4095220354005056       0.37399226473200725      0.34151931784399725      0.3118936124497236       0.2845877398577467       0.259751114171343
3.3999999999999996E-10   0.9123799042060363       0.8345135666116412       0.7621090438654112       0.6984042286281049       0.6397320693616304       0.576147674631174        0.5254475081061776       0.47941252642066434      0.4371027541249587       0.3982866387276096       0.362737022746654        0.33040340684554514      0.30076878422693665      0.2737149109612895       0.24922484379961612
3.5E-10                  0.90989105817514         0.8301417971329725       0.7559060726468949       0.6908697589429937       0.6312450864017527       0.566626590897418        0.5152699546244771       0.46895430126422344      0.4263889768991816       0.3873659721635201       0.3518520244244521       0.31960808934518514      0.2900568813978868       0.2633124978010288       0.2389744112311873
3.6E-10                  0.9074022121442438       0.8259691446546953       0.7498604937027629       0.6835610654309805       0.6227581034418749       0.5572503080601368       0.5052770368229426       0.458746658265414        0.41585943354904187      0.37676003570823685      0.3413372697654019       0.3090783550472689       0.27975790396257405      0.25333483734943996      0.22916101482696324
3.6999999999999996E-10   0.9051354867590118       0.821796492176418        0.7438516576300415       0.6763105486654525       0.614664651116179        0.5480188261193308       0.4954687547015738       0.4487602228699941       0.40559402180253407      0.36646882936176006      0.3311313493293361       0.2989082781440999       0.2698718519209985       0.24360218017901292      0.21978465458694402
3.8E-10                  0.9028691138037361       0.8176238396981406       0.7378795644287304       0.6691182086464096       0.606983232990971        0.5389321450749998       0.485845108260371        0.438910980477795        0.3955927416596581       0.35649235312408967      0.32112571964647396      0.2890978586356784       0.260383662300682        0.23425687150525243      0.21084533051112953
3.9E-10                  0.9006027408484605       0.8134511872198632       0.7319442140988301       0.6619840453738517       0.5993018148657632       0.5299902649271436       0.47640609749933405      0.4292799872033958       0.38585559312041406      0.3468306069952256       0.31143065121308444      0.27964709652200426      0.25108751189773315      0.2252989113281586       0.20227908741221645
3.9999999999999996E-10   0.8983363678931848       0.8092785347415858       0.7260456066403402       0.6549080588477789       0.5916203967405553       0.5211931856757626       0.4671517224184629       0.41986724304679646      0.3763825761848019       0.33730515330371225      0.3020461440291676       0.2705559918030774       0.24213246458426596      0.2167282996477314       0.1939580389363575
4.1E-10                  0.8960699949379092       0.8051058822633087       0.7201837420532606       0.647890249068191        0.5839389786153474       0.5125409073208564       0.4580819830177576       0.4106727480079969       0.36717369085282164      0.3280406072049949       0.29297219809472325      0.26167595172920394      0.2335185203602802       0.20852819951791757      0.18599487421681668
4.2E-10                  0.8938036219826336       0.8009332297850313       0.714358620337592        0.6409306160350884       0.5762575604901394       0.5040334298624252       0.4491968792972181       0.40169650208699725      0.35815954593452937      0.3190416172680335       0.2842088134097514       0.2530512199109223       0.22524567922577615      0.2005139873084284       0.1783895932535941
4.2999999999999996E-10   0.8915372490273579       0.796760577306754        0.7085702414933337       0.6340291597484707       0.5685761423649316       0.4956707533004691       0.4404964112568446       0.39293850528379753      0.3493032583459827       0.3103081834928284       0.2757222194993354       0.24472476119078485      0.21731394118075362      0.19281782260870534      0.17114219604668973
4.4E-10                  0.8892708760720822       0.7925879248284766       0.7028186055204859       0.6271858802083381       0.5608947242397238       0.48745287763498796      0.43198057889663677      0.3843987575983976       0.3406714869027374       0.3018403058793794       0.2673852259642373       0.23669657556879148      0.20960301226178074      0.18543970541874832      0.16416991210313067
4.5E-10                  0.8870045031168066       0.7884152723501994       0.6971037124190484       0.6204007774146907       0.5534742930159298       0.4793798028659817       0.4236493822165949       0.37596394490288015      0.33226423160479357      0.2936379844276865       0.2593070475362748       0.22896666304494218      0.20212099949917525      0.17837963573855734      0.15741697562897697
4.5999999999999996E-10   0.8847381301615309       0.7842426198719219       0.6914255621890217       0.6136738513675284       0.546168223766423        0.47145152899345055      0.415502821216719        0.36770372292125686      0.3240814924521512       0.2856315528432065       0.25148768421544787      0.2215350236192371       0.19491997863827193      0.17163761356813245      0.15095675457787364
4.699999999999999E-10    0.8824717572062553       0.7800699673936446       0.6857841548304056       0.607005102066851        0.5389347903268418       0.46366805601739447      0.4074690921705354       0.359630747926196        0.3161232694448102       0.2777793819151185       0.24392713600175642      0.2142286418378174       0.18799994967907077      0.1650428296195014       0.1447892489498207
4.8E-10                  0.8802053842509796       0.7758973149153673       0.6801794903431998       0.6003945295126585       0.5317739926971858       0.4560293839378131       0.39944980725015783      0.35174501991769735      0.3083895625827705       0.2701498686414801       0.2366254028952004       0.20716815890367654      0.18136091262157164      0.15870596868823295      0.13891445874481811
4.9E-10                  0.877939011295704        0.77172466243709         0.6746115687274047       0.5938421337049514       0.5246858308774558       0.44853551275470693      0.39158702285198826      0.34404653889576103      0.30080843484061126      0.26274301302229175      0.2295698517889199       0.2003543719579557       0.17496891903252154      0.15262994610183828      0.1332384059002506
4.999999999999999E-10    0.8756726383404283       0.7675520099588127       0.66908038998302         0.5873479146437292       0.5176703048676511       0.4410024033245347       0.3838807389760266       0.336535304860387        0.2933665647163398       0.2555588150575533       0.22262628416625307      0.19378728100065482      0.16872012002720155      0.1468147618603173       0.12775885738375536
5.1E-10                  0.8734062653851526       0.7633793574805352       0.663585954110046        0.5809118723289921       0.5107274146677719       0.4335841321055647       0.37633095562227264      0.3292113178115753       0.2861143807381093       0.24859727474726456      0.21589784091300473      0.18746688603177378      0.1627025293802339       0.14126041596367003      0.12251860264460816
5.2E-10                  0.8711398924298771       0.7592947312382216       0.6581282611084823       0.5745340067607401       0.5038571602778185       0.4262884417885801       0.36893767279072676      0.3220164884903512       0.2790518829059201       0.2418583920914258       0.20938452202917487      0.18136182971396672      0.15691614709161875      0.13584505706107047      0.11751764168280907
5.299999999999999E-10    0.8688735194746015       0.7554829806344547       0.6527356693854109       0.5682568190295147       0.49705954169779043      0.41911533237358084      0.3617008904813887       0.31493730573219764      0.27217907121977186      0.2352114292955491       0.2030863275147635       0.1753796115715719       0.15136097316135608      0.13062790012776304      0.112755974498358
5.4E-10                  0.8666071465193257       0.7516712300306878       0.6473929679311581       0.562046686311634        0.49033455892768785      0.4120648038605669       0.3546206086942585       0.30801784172573365      0.2654959456796647       0.2287460968004305       0.1970032573697705       0.16960120381677907      0.1460370075894458       0.12562455820109042      0.10813414426015819
5.5E-10                  0.86434077356405         0.7478594794269208       0.6420911776364264       0.5558998199984144       0.48368221196751104      0.40513685624953844      0.34769682742933616      0.3012580964709594       0.2590025062855988       0.22246698088946404      0.19113531159419606      0.16402660644958839      0.14083877157827324      0.1208350312810527       0.10368826058011552
5.599999999999999E-10    0.8620744006087744       0.7440477288231537       0.6368302985012162       0.5498162200898555       0.4771025008172596       0.39833148954049535      0.34092954668662184      0.29465806996787497      0.2526276362648679       0.2163740815626496       0.18535562691284677      0.15865581946999985      0.13581168603475455      0.1162593193676498       0.09943795759393387
5.7E-10                  0.8598080276534986       0.7402359782193868       0.6316103305255274       0.5437958865859575       0.4705954254769338       0.39164870373343763      0.33431876646611525      0.2882177622164801       0.24637665892571237      0.21046739881998722      0.17975231527731214      0.15348884287801332      0.13097475500865985      0.1118121666405355       0.09538323530161313
5.8E-10                  0.8575416546982231       0.73642422761562         0.6264312737093596       0.5378388194867203       0.46416098594653354      0.3850884988283654       0.32786448676781654      0.2819371732167751       0.24028555395643714      0.20474693266147698      0.17432762087265236      0.1484709952018206       0.12632797849998917      0.10751708822146033      0.09152409370315347
5.899999999999999E-10    0.8552752817429474       0.7326124770118532       0.6212931280527132       0.5319450187921442       0.45779918222605875      0.37865087482527837      0.32156670759172584      0.27579990367613805      0.23435432135704218      0.19916403713297137      0.1690815436988674       0.1435742740618033       0.12187135650874252      0.10339724292556882      0.08775980394667415
6.0E-10                  0.8530089087876715       0.7288007264080862       0.616195893555588        0.5261144845022288       0.4515369316662543       0.37233583172417684      0.31542542893784287      0.26973504467609194      0.22858296112752735      0.19368706587121498      0.16401408375595727      0.13884585565003116      0.11756496913907893      0.09945263075286095      0.08415283779223962
6.1E-10                  0.8507425358323961       0.7249889758043192       0.6111395702179843       0.5203472166169741       0.4453729530291911       0.36614336952506066      0.3093584442097231       0.2638061129600701       0.2229714732678929       0.18836567461738402      0.15912524104392195      0.13428573996650456      0.11336650301711816      0.09568325170333682      0.08070571047591499
6.199999999999999E-10    0.8484761628771204       0.7211772252005524       0.6061241580399017       0.5146432151363806       0.43928764761163397      0.3600734882279299       0.3032477125735801       0.2580131085280726       0.2175198577781386       0.18319986337147845      0.1543231587249267       0.12989392701122326      0.1093243962888731       0.09203087010332699      0.0774184219977002
6.3E-10                  0.8462097899218448       0.7173654745967853       0.6011496570213404       0.5090024800604476       0.433281015413583        0.35412618783278443      0.2972573602396643       0.2523560313800992       0.21215962479604475      0.17818963213349828      0.1496571888879985       0.1256704167841873       0.10543864895434371      0.088495023926692        0.07428117410051555
6.4E-10                  0.8439434169665692       0.7135537239930184       0.5962160671623005       0.5034250113891758       0.42735305643503824      0.34830146833962444      0.2913873872079761       0.24683488151615038      0.20690976959925506      0.17333498090344357      0.14513945935402567      0.12154445269967448      0.10170926101353012      0.08510277865037778      0.07122437498627338
6.499999999999999E-10    0.8416770440112935       0.7097419733892516       0.5913233884627818       0.4979108091225648       0.4215037706759996       0.34259932974844987      0.2856377934785153       0.24144965893622575      0.20179452859040053      0.1686359096813142       0.14076997012300813      0.11753669514172599      0.09813623246643222      0.08185413427438429      0.068298199758319
6.6E-10                  0.8394106710560179       0.7059302227854845       0.5864716209227843       0.4924598732606146       0.41573315813646705      0.3368824764951939       0.2800085790512819       0.23620036364032537      0.19681390176948124      0.1640014449375527       0.13654872119494582      0.11366789242675057      0.09463159235315868      0.0787490907987115       0.06550264841665235
6.7E-10                  0.8371442981007422       0.7021184721817175       0.5816607645423084       0.4870722038033252       0.4100412188164407       0.33117892890223943      0.27449974392627596      0.2310178142228003       0.19196788913649726      0.15949288075753976      0.13247571256983884      0.10993804455474838      0.09125461228030457      0.07574914360910459      0.06283772096127352
6.799999999999999E-10    0.8348779251454665       0.6983067215779507       0.5768908193213536       0.4817478007506969       0.40442795271592047      0.3255714020039401       0.2691112881034975       0.22593847501849967      0.18725649069144853      0.1551142463275502       0.1284857012625754       0.1063471515257193       0.08800619214346743      0.07283839963266363      0.06028507734381054
6.9E-10                  0.8326115521901909       0.6944949709741839       0.5721617852599199       0.4764866641027292       0.39889335983490637      0.32005989580029603      0.26384321158294644      0.2209747114487363       0.18267970643433495      0.15086554164758395      0.12460042440509303      0.1028952133396634       0.08488633194264719      0.07004533023086745      0.05780458472147916
7.0E-10                  0.8303451792349152       0.6908152029542924       0.5674557312603843       0.4712535823449241       0.39343744017339843      0.31464441029130724      0.2586955143646228       0.2161265235135103       0.17817266261698775      0.14674676671764114      0.12083815488922797      0.09950117144508422      0.081895031677844        0.06736993540371614      0.05543083921651263
7.099999999999999E-10    0.8280788062796396       0.6871510440067314       0.5627504619706725       0.466049634578068        0.38806019373139666      0.30932494547697365      0.2536681964485266       0.21139391121282158      0.1737638743525408       0.14275792153772165      0.11719889271498021      0.09622128339965191      0.07899325329965766      0.06481221515120963      0.0531638408289109
7.2E-10                  0.8258124333243637       0.6835014722553611       0.558080018478839        0.46090182844631056      0.382761620508901        0.3041015013572953       0.2487612578346578       0.20677687454667015      0.16946838862210523      0.1388657361732393       0.1136826378823497       0.09305611088014085      0.076172678538865        0.062347902713992515     0.05100358955867399