% Model:              Post reunió 7 - Tau nula - grafica k vs ell - parametrics no tan heavy.mph
% Version:            COMSOL 5.4.0.388
% Date:               Jul 28 2024, 13:50
% Table:              Table 5 - Point Evaluation Fourier 2 (T_F)
% Time (s)               k=20, Temperature (K), Point: (7.5E-8, 5E-8)k=30, Temperature (K), Point: (7.5E-8, 5E-8)k=40, Temperature (K), Point: (7.5E-8, 5E-8)k=50, Temperature (K), Point: (7.5E-8, 5E-8)k=60, Temperature (K), Point: (7.5E-8, 5E-8)k=70, Temperature (K), Point: (7.5E-8, 5E-8)k=80, Temperature (K), Point: (7.5E-8, 5E-8)k=90, Temperature (K), Point: (7.5E-8, 5E-8)k=100, Temperature (K), Point: (7.5E-8, 5E-8)k=110, Temperature (K), Point: (7.5E-8, 5E-8)k=120, Temperature (K), Point: (7.5E-8, 5E-8)k=130, Temperature (K), Point: (7.5E-8, 5E-8)k=140, Temperature (K), Point: (7.5E-8, 5E-8)k=150, Temperature (K), Point: (7.5E-8, 5E-8)
0                        0.9998962970393648       0.9998444977854535       0.9997927015191221       0.999740908708948        0.9996891195898445       0.9996373342905489       0.9995638504322237       0.999509361277163        0.9994548763646924       0.9994003957154887       0.9993459193436732       0.999291447259218        0.9992369794692311       0.9991825159788911
1.0E-11                  0.9466051653446612       0.9209543275141612       0.8959945512406532       0.8716627644043324       0.8479802292913698       0.8249468160738544       0.8025175053601469       0.7805654521421672       0.7591802260326439       0.7383616919238445       0.7181097317465103       0.6984242359851851       0.679305099721033        0.6607522206731891
2.0E-11                  0.8960778110995137       0.8481110821222285       0.8027012268138337       0.7593996025385309       0.7183551329373691       0.6795667107702648       0.6429441644830703       0.6079251421499892       0.5748766845097948       0.5437983149342397       0.5144975594386616       0.48639562008898873      0.45990821698092693      0.43503492244166675
3.0E-11                  0.8481521678606124       0.7808203114523851       0.7184321121968373       0.6611157056504297       0.608029898533716        0.5591796979039373       0.5146109953848302       0.4730691875202041       0.4351590885049178       0.40026096871225103      0.36797973885909707      0.33863883502300196      0.31127265340009697      0.2862432834460836
4.0E-11                  0.8027539189015345       0.7184734255093626       0.6430915320778433       0.575032583496085        0.5146679014083203       0.4600595442145641       0.4117370027585924       0.36804399377143326      0.32933792624126523      0.29438537983927304      0.26341117184277996      0.23546010107229576      0.2106756043383961       0.18832700930961238
4.9999999999999995E-11   0.7594980584202706       0.6612235942158173       0.5750760471791716       0.5004512965535466       0.4352148664800327       0.37847999168363095      0.3293763267948594       0.2863454866828066       0.24904814079033205      0.21672321193680333      0.18836049733947963      0.16385411996758822      0.14254611681190466      0.12390882629508931
6.0E-11                  0.7185239258812912       0.6081407784493439       0.5147305403629749       0.4352580230704626       0.36807082837511196      0.31136158069981823      0.2634732710033591       0.2228198072167307       0.18838393647684665      0.15933952550111077      0.13480703548857692      0.11403912132827582      0.09639941186292726      0.08152859274082565
6.999999999999999E-11    0.679831521284596        0.559376545692509        0.4601753328696607       0.37854090540487784      0.31138593103926704      0.2561471377003709       0.2107507187419617       0.1733739944672465       0.1425834110274877       0.11723911640502852      0.09641157696926073      0.07929218155004518      0.06521805814058237      0.05364557495690381
8.0E-11                  0.6431445476019715       0.5147713665272967       0.41183449373965475      0.32941922325506146      0.2634755813037144       0.2107254056368082       0.16857642109904725      0.13483216887319394      0.10784237269398661      0.08625518187149495      0.0689891983552908       0.05517944130550852      0.04413406098778559      0.03529969421658719
9.0E-11                  0.6082071491548328       0.47327468438088893      0.3681574225439368       0.2863807296598865       0.2227941024931825       0.17335806827160238      0.13484126204768526      0.10486206003671222      0.08155430833431875      0.06343485143780377      0.049349478887792654     0.03840022377142738      0.029870142985204337     0.023228317999725683
9.999999999999999E-11    0.5752672912049968       0.43543008764338687      0.32945604565851605      0.2491003748374082       0.18838179644497277      0.14253459972958166      0.10785698747225884      0.08156006275061917      0.06170087249941626      0.04669592767402859      0.03530638838072603      0.02670151690039857      0.0202047635490874       0.015285201805829183
1.1E-10                  0.544324973752463        0.40048371952972484      0.29451475589765796      0.21678224006124056      0.15935165833392684      0.11720744115858311      0.08627278956899889      0.06344410862928122      0.04669907038080516      0.03433228290234696      0.02526125945933244      0.018582125744737787     0.013665541488189444     0.010058382685506915
1.2E-10                  0.5148441311841365       0.3682490429584083       0.26353853754212886      0.1884120204948479       0.13482621595641345      0.09639244906720065      0.06900804974731345      0.04936073242060322      0.03531123210772322      0.025263203225479036     0.018068895750485012     0.012930486636078467     0.009246071017853448     0.006618542543773214
1.3E-10                  0.4868249631051841       0.3389089541180855       0.23559512308054134      0.16391279040185283      0.11403372459611638      0.07928194841547982      0.05519836062055805      0.03841247477154211      0.026707279887950137     0.018584657076831407     0.012931498445346436     0.008991712387609194     0.006257262040876594     0.0043534191083255454
1.3999999999999998E-10   0.4604546976210563       0.311533074474595        0.2108041781954161       0.14259102340944388      0.0964077359174227       0.06521388227310419      0.04415228860979675      0.029880243634401196     0.020211033876132753     0.013668527439394309     0.009247360199897638     0.006257687484213436     0.004235014026720946     0.002863752256225343
1.5E-10                  0.4357333347317531       0.28655331842247034      0.18846064290405679      0.1239616386219411       0.08154452923846288      0.05364530548529212      0.035316768329208006     0.023237834048147506     0.015290381515012899     0.010061099530751343     0.006620128158639492     0.004354093922314552     0.002863968431855599     0.001883964839451187
1.6E-10                  0.4120077539372543       0.2636041910365181       0.16862021462059548      0.1078581398490042       0.06899157534382519      0.04413075276931295      0.028249415240678977     0.01807298662791333      0.011562556772438292     0.0073974429646015225    0.004732749574244644     0.0030279588769892103    0.0019372755576324554    0.0012394764251229136
1.6999999999999998E-10   0.3895830707347929       0.24235114416846815      0.150755844918392        0.09379328378979858      0.05836748371545929      0.03630458151514104      0.02259637680674731      0.014057426387750656     0.008746843616368459     0.005443868234049697     0.003387946068663038     0.002107331581674849     0.001310854427013005     8.155072688206036E-4
1.8E-10                  0.36850432989376425      0.2230312191084533       0.13487713653798905      0.08156149827783071      0.04933911726699766      0.029866550711152847     0.018074615359012745     0.01093563386289401      0.0066212396939119515    0.004004282617900486     0.0024222596700306884    0.0014661645055316975    8.871538414058752E-4     5.365839372178784E-4
1.9E-10                  0.34869786689768933      0.20503334571527632      0.12059478040805402      0.0709736095850449       0.041728901095804065     0.024556275559281325     0.014457736329352704     0.008508772228842252     0.00500651461899753      0.0029452247354334648    0.001733802175707104     0.0010196682628540311    6.003692096883783E-4     3.530727267302519E-4
1.9999999999999998E-10   0.3296727421497464       0.1885604728807989       0.10788637317706708      0.06170023421563136      0.03530358764881793      0.020192764574172246     0.011564652514473368     0.006621800343937932     0.003786352533274192     0.002167765358529661     0.001239770356857938     7.096640754941639E-4     4.059759319900878E-4     2.3232930790331388E-4
2.1E-10                  0.3117417106213952       0.17349207009191991      0.09646827682912823      0.05366608909800107      0.02987169753895272      0.016606671681697306     0.009250516878434109     0.005149702364319657     0.002864981196919555     0.0015939062442760492    8.872876875917119E-4     4.937080203837485E-4     2.7464357439146325E-4    1.5288119620456944E-4
2.2E-10                  0.294904772312636        0.15948917310573887      0.08629685898915301      0.046702759285648675     0.02525117050149773      0.013658820899819898     0.007399469926299146     0.004004973880617064     0.0021679473717445092    0.0011730899194136953    6.345667265701697E-4     3.4337610199807427E-4    1.8584980024904891E-4    1.0060316204142127E-4
2.2999999999999998E-10   0.27899970784738076      0.1467421711764373       0.0771689482795069       0.04059131734040286      0.021354308788030775     0.011235139538873368     0.005918838516968108     0.003114917060538463     0.0016393331743045953    8.6277312416565E-4       4.540805975762177E-4     2.389873863676598E-4     1.257830212037E-4        6.620248642142282E-5
2.4E-10                  0.26378083266748464      0.13493839268716465      0.0690277643408155       0.0353124534639193       0.01806526732943946      0.009242081939218794     0.004734495648923326     0.0024229362955378005    0.0012400045438671922    6.346277684236972E-4     3.248113714101921E-4     1.6625015791686063E-4    8.509709392308444E-5     4.3560596323731195E-5
2.4999999999999996E-10   0.2494497966690185       0.12407956204330367      0.06173094320613728      0.030720353497341403     0.01528545895380553      0.007602899209980814     0.0037871488795693494    0.0018849833613302125    9.385369273202269E-4     4.670686437880069E-4     2.323844482081814E-4     1.1563415278732379E-4    5.755197463241162E-5     2.8653581327807823E-5
2.6E-10                  0.23600659985198208      0.1141825982282369       0.05521450865161724      0.026705831900595133     0.012923601903111292     0.00625459584429487      0.0030293715345760973    0.0014667844698741683    7.098433494847375E-4     3.434375370536722E-4     1.6626692210696778E-4    8.048282144145326E-5     3.8938302821656855E-5    1.8849808088378983E-5
2.7E-10                  0.22322738751474736      0.1049594281465444       0.04938165757451807      0.023236208367854314     0.010928022399757084     0.005145444621026982     0.0024232280550901242    0.0011412320347371579    5.368116696271889E-4     2.527910633107723E-4     1.1892945301328689E-4    5.598399348790842E-5     2.6351454979979025E-5    1.2401575430085975E-5
2.7999999999999996E-10   0.21105720154075652      0.09655163997360094      0.04416551613123482      0.020206925013767908     0.009244290305085251     0.004230614431915257     0.0019383745795445054    8.875286160370407E-4     4.061351526400707E-4     1.858973086052597E-4     8.511474514945612E-5     3.894171148735529E-5     1.7835711541033702E-5    8.159990513907246E-6
2.9E-10                  0.19960696486567875      0.08880720653405823      0.03950307955422254      0.01757119103563954      0.007821631843790897     0.003478852029025283     0.001550539652333366     6.902531860751242E-4     3.073849171948264E-4     1.367500657034588E-4     6.086725428470726E-5     2.7104969464216306E-5    1.2064084235779549E-5    5.369689740844887E-6
3.0E-10                  0.1888766774895141       0.08165100247580151      0.03532760464517201      0.015290033382680914     0.006614524727946838     0.0028610282831566768    0.0012403089851698217    5.368716471288586E-4     2.3242834170634428E-4    1.0063660885344123E-4    4.3574573049746496E-5    1.8853504363904544E-5    8.160736404534941E-6     3.5339765724205346E-6
3.0999999999999996E-10   0.1786028355721824       0.07514824476716646      0.03160085913714822      0.013292640963664164     0.005592501147804954     0.00235316446905215      9.921534214479178E-4     4.176270704614524E-4     1.7579635033440925E-4    7.400204013606509E-5     3.115269527494765E-5     1.3115369033617208E-5    5.52249201387294E-6      2.326203503040018E-6
3.2E-10                  0.1688729748078135       0.06907467768137909      0.02825829385704392      0.01156149819961308      0.004730501954074022     0.0019356070744587684    7.936514316410451E-4     3.2492636164734555E-4    1.330378504952246E-4     5.447640964842083E-5     2.2301485148848106E-5    9.129484475066781E-6     3.7381905091903853E-6    1.5315303638628424E-6
3.3E-10                  0.1597267457010842       0.06353042739279048      0.025279563902513992     0.01006129710396657      0.004002370508895474     0.001592239288465037     6.348672084144394E-4     2.528618818950947E-4     1.006467695069476E-4     4.0055964541686656E-5    1.594537497950725E-5     6.350321395753105E-6     2.530870628227078E-6     1.0086401068191249E-6
3.3999999999999996E-10   0.15114957739540083      0.05844719823100569      0.022603652666743405     0.008744889230623436     0.0033855393206654737    0.0013098382689521063    5.078532214155611E-4     1.9668699439241217E-4    7.610974142308731E-5     2.9468735614803768E-5    1.1414113119279236E-5    4.418277785832609E-6     1.712182711933087E-6     6.64569378995222E-7
3.5E-10                  0.14289930986343724      0.05373219365309766      0.0202228853498924       0.007607479280166005     0.0028620685739994597    0.00107755076711783      4.0625232374308774E-4    1.5296411508484655E-4    5.75765337386759E-5      2.1685128327562864E-5    8.162404306007389E-6     3.0760713083599235E-6    1.1590145676370387E-6    4.3815887066361546E-7
3.6E-10                  0.13512210704824446      0.0494436590754424       0.018080579013688085     0.006618498499079787     0.002420729301610929     8.864649498450524E-4     3.249794869280914E-4     1.1896734313594207E-4    4.358474548577577E-5     1.5947148206673007E-5    5.842458316255083E-6     2.140031743668035E-6     7.850598913442685E-7     2.8912460534394526E-7
3.6999999999999996E-10   0.1278179689498225       0.04545931663665325      0.016177805880359573     0.0057533998247756       0.0020480427504870995    7.288621691973322E-4     2.5996722848440604E-4    9.253570223998732E-5     3.295634442907021E-5     1.1740876493453303E-5    4.1790478999527955E-6    1.4895035776318854E-6    5.321098314380348E-7     1.9101983664244777E-7
3.8E-10                  0.12093245945275335      0.04180422997166394      0.01446262557859745      0.005005844158561711     0.001732895679992301     5.993456553685327E-4     2.0796198534815227E-4    7.198717977717062E-5     2.492511217606816E-5     8.632542492281894E-6     2.9911424481986583E-6    1.037526951696598E-6     3.608496663862599E-7     1.2649930851522344E-7
3.9E-10                  0.11433389090415434      0.03846637288209405      0.01294193407518944      0.004353405042396793     0.0014647533715464135    4.929049671522533E-4     1.6636123752245945E-4    5.601290912027261E-5     1.8860607054909266E-5    6.351879620857428E-6     2.140289072450689E-6     7.222649744690136E-7     2.448185609303854E-7     8.406178492990955E-8
3.9999999999999996E-10   0.10811874579448133      0.03536048063108646      0.011568661962290765     0.0037854494711379834    0.0012387724435933849    4.0540879383990994E-4    1.3308322670704364E-4    4.35899625494253E-5      1.4272299003976362E-5    4.674219733412705E-6     1.5319659294859867E-6    5.032275776868984E-7     1.664209972993766E-7     5.6146526481392476E-8
4.1E-10                  0.10228702412373428      0.03253143037839342      0.010353374314086955     0.00329397354065076      0.0010480051393670358    3.334710440318126E-4     1.0646274679672297E-4    3.3900001517142556E-5    1.0792884199128797E-5    3.4380790799143477E-6    1.0967772433319056E-6    3.510275947332136E-7     1.1341289561382728E-7    3.778248956774843E-8
4.2E-10                  0.09675621190089301      0.029917986349748862     0.009253805770194006     0.0028637580207555194    8.86751303140436E-4      2.743149816361995E-4     8.516778860225879E-5     2.6364980339492785E-5    8.164472405222062E-6     2.531616312677925E-6     7.852195139679553E-7     2.448467432964873E-7     7.755249337890316E-8     2.570087068828693E-8
4.2999999999999996E-10   0.0914796400119454       0.02750891205229742      0.00828209798842966      0.002490741692353312     7.496536783535334E-4     2.2566248166808553E-4    6.813286535126565E-5     2.050633711916132E-5     6.1802060553119734E-6    1.8619358971480847E-6    5.626487777375451E-7     1.7109481816200883E-7    5.325666992399966E-8     1.7751946364414725E-8
4.4E-10                  0.08651382918451171      0.025316270558402333     0.007402168572480007     0.002167532804181624     6.339342750546357E-4     1.8564368032798837E-4    5.450294063225839E-5     1.595151515266711E-5     4.674773634514596E-6     1.3706485800666347E-6    4.030616703265607E-7     1.1984230494301974E-7    3.681487722384927E-8     1.2521800148402045E-8
4.5E-10                  0.081858779418592        0.023270774252089295     0.006624703012291554     0.0018839794475993227    5.362798387482018E-4     1.52723200825055E-4      4.3596163857348934E-5    1.2410559010438933E-5    3.535859076571567E-6     1.0090403096912178E-6    2.8923967946746866E-7    8.408061476245329E-8     2.5703402589861818E-8    9.080379924078226E-9
4.5999999999999996E-10   0.07741338462029997      0.021404988967377265     0.005921053555180701     0.0016389065173790136    4.537551535295205E-4     1.255721150169212E-4     3.487207482376138E-5     9.657858676560997E-6     2.675739302224319E-6     7.427396506774392E-7     2.0748443898408008E-7    5.9247492648990244E-8    1.8189193308378673E-8    6.815858948707617E-9
4.699999999999999E-10    0.07319473411903055      0.019690010535789764     0.0052989816869781076    0.001425915331585762     3.8368066439970096E-4    1.032585115042186E-4     2.7893873790836574E-5    7.514518579696264E-6     2.025709922762589E-6     5.473901918999748E-7     1.4922764979158012E-7    4.1988413689324546E-8    1.3105165252924506E-8    5.325721632799083E-9
4.8E-10                  0.0692279499822281       0.018102547662746944     0.004736314352107655     0.0012394922445896363    3.2441850260120993E-4    8.492056207399921E-5     2.2312171878949583E-5    5.844541971363959E-6     1.5323338832363344E-6    4.031112707364761E-7     1.073919868670416E-7     2.994396021269672E-8     9.658709333848941E-9     4.34474509311245E-9
4.9E-10                  0.06551303220989271      0.016659877274065066     0.004238561055499014     0.001078425314712043     2.744254809475339E-4     6.984648034711756E-5     1.7847499145575154E-5    4.546006059812879E-6     1.1595770642854858E-6    2.9728202199208046E-7    7.756830412501075E-8     2.158230795099379E-8     7.3287283798987E-9       3.699105498875411E-9
4.999999999999999E-10    0.06193777232826175      0.015314793546823809     0.0037886426817449878    9.379055287559105E-4     2.321897245811568E-4     5.7452878684120464E-5    1.427631288670322E-5     3.536400721787922E-6     8.781392809346421E-7     2.1933769721162998E-7    5.616561652671846E-8     1.5770357482123318E-8    5.7537926188185035E-9    3.274482888727684E-9
5.1E-10                  0.05856557402679076      0.014084594435449512     0.0033903501439204262    8.155202368801858E-4     1.963784940366268E-4     4.726135822067288E-5     1.1419805776801098E-5    2.751498555873724E-6     6.649190027189533E-7     1.619693791905344E-7     4.089635381816695E-8     1.1713839601757554E-8    4.6885696174640045E-9    2.99519001567107E-9
5.2E-10                  0.05539750810320747      0.012958728964129891     0.0030305989152331087    7.096312611230817E-4     1.6602648407775E-4       3.887942740010712E-5     9.134953600133093E-6     2.1413169106414266E-6    5.03413112520839E-7      1.1986916440841847E-7    2.994778111900807E-8     8.898338894664574E-9     3.967702428563838E-9     2.8069297276412177E-9
5.299999999999999E-10    0.05241676377802342      0.011912899714117763     0.002711882158345821     6.16968281771064E-4      1.404313288099315E-4     3.198493467479586E-5     7.307354426839864E-6     1.6669684721548777E-6    3.814263464135447E-7     8.878540347821153E-8     2.2129342806264102E-8    6.941171437205402E-9     3.4789196919406967E-9    2.6816531250423263E-9
5.4E-10                  0.04955625904120459      0.010961061968981282     0.0024242368982302144    5.365925864299508E-4     1.1881406673242015E-4    2.6313357356354317E-5    5.8455007585146705E-6    1.2971200719579721E-6    2.893253405554412E-7     6.598872345493808E-8     1.6529004781244835E-8    5.574963104662771E-9     3.1487157989010204E-9    2.600845685114729E-9
5.5E-10                  0.046861198994698386     0.010079005922133113     0.002169188505421382     4.669590368675374E-4     1.0051596643273673E-4    2.163589320564333E-5     4.67619789750176E-6      1.0093194996499537E-6    2.1936736932575E-7       4.918743306150903E-8     1.2525224081733455E-8    4.626933533840411E-9     2.924685146624086E-9     2.548964847792201E-9
5.599999999999999E-10    0.04433158363850482      0.00926807250003725      0.0019392041026479105    4.058821731485826E-4     8.496927879728064E-5     1.7791619514434547E-5    3.740899171495416E-6     7.855413329743024E-7     1.6650498087374675E-7    3.6828882451896895E-8    9.660791963965646E-9     3.967857053475308E-9     2.768875997453428E-9     2.5158274846448838E-9
5.7E-10                  0.04193780341976684      0.008528654419891422     0.0017350982234981562    3.530771212720787E-4     7.18642266054951E-5      1.4632297549990613E-5    2.992774541767899E-6     6.115602635392851E-7     1.2658815630887216E-7    2.7755556091548732E-8    7.6102336152151E-9       3.5077300632985164E-9    2.663606772343726E-9     2.4947327692192377E-9
5.8E-10                  0.03965025209549199      0.007839804485532596     0.0015512219834251748    3.072067049465664E-4     6.079934983458895E-5     1.2035293131405436E-5    2.3943658365265746E-6    4.7630408770106355E-7    9.63850524101074E-8      2.1058874683375663E-8    6.145257909646253E-9     3.1885095601679204E-9    2.592955969294751E-9     2.4805929246300907E-9
5.899999999999999E-10    0.037496789862042024     0.007211968786829271     0.0013878777027611752    2.6703354667177953E-4    5.14450480271394E-5      9.900094744962505E-6     1.9157112179732316E-6    3.711570460081503E-7     7.348304649947523E-8     1.614828944510261E-8     5.094920305241168E-9     2.966513435688744E-9     2.5464472163351085E-9    2.470638263758855E-9
6.0E-10                  0.03547741671941691      0.006633292498664789     0.0012408704520695893    2.323302362625211E-4     4.348737104937475E-5     8.144279903596922E-6     1.5328449824566747E-6    2.89369791531391E-7      5.618264002275345E-8     1.2526584562116521E-8    4.345733781157045E-9     2.807016013692795E-9     2.5159531288004494E-9    2.4644026779229357E-9
6.1E-10                  0.03355383688351228      0.006098858372717373     0.001110142604093347     2.0206581611820036E-4    3.677688443393488E-5     6.700227367849752E-6     1.2265975834343293E-6    2.2558647046881297E-7    4.312215753022151E-8     9.864275100324794E-9     3.807657227138966E-9     2.69516234846081E-9      2.495993563848008E-9     2.4605136314426295E-9
6.199999999999999E-10    0.031724809730902824     0.005613052624600913     9.92615605696231E-4      1.7569362678218056E-4    3.11129337478094E-5      5.512434898636578E-6     9.816357973181837E-7     1.7598822812226704E-7    3.321226642670281E-8     7.9087691458138E-9       3.4242233206593824E-9    2.6190495146370823E-9    2.4824053716657633E-9    2.4587909613986657E-9
6.3E-10                  0.030004458647653123     0.005159426801682421     8.879875103631502E-4     1.5287966037679776E-4    2.632582124409293E-5     4.535329150062255E-6     7.856949750119271E-7     1.3742474682183825E-7    2.571580001287148E-8     6.466052179689859E-9     3.1488627001628022E-9    2.5672674374230703E-9    2.472354154575697E-9     2.4575911397678626E-9
6.4E-10                  0.028392783633763224     0.004745408142627319     7.940320300739976E-4     1.3292134203404693E-4    2.2258077248948438E-5    3.729517259295398E-6     6.289649388629048E-7     1.0744356835139401E-7    2.0054446686171827E-8    5.408283518054265E-9     2.9523482818242106E-9    2.5320798221043295E-9    2.4660714907009117E-9    2.457283987569127E-9
6.499999999999999E-10    0.026846070567544986     0.004365602590334481     7.102897419276194E-4     1.1560231059605195E-4    1.8821665065090146E-5    3.0672109246500506E-6    5.035987772534956E-7     8.413601023804539E-8     1.5775586324674864E-8    4.627562178963491E-9     2.807088470563361E-9     2.5081002246753268E-9    2.4615859016145353E-9    2.4567146801496623E-9
6.6E-10                  0.025383932323554355     0.004013470699727309     6.351807375413827E-4     1.0060010172624549E-4    1.5922180003405838E-5    2.5229125691734243E-6    4.0331994221376977E-7    6.601697739613057E-8     1.2528107694904148E-8    4.054046721097579E-9     2.702327876143519E-9     2.4916405431382527E-9    2.4597534362034634E-9    2.4563895805765062E-9
6.7E-10                  0.024009873478299693     0.003693250148298505     5.681524857649238E-4     8.744433190361519E-5     1.3472227231474674E-5    2.0754934604118468E-6    3.2310797727911256E-7    5.190580402904647E-8     1.0074589405109729E-8    3.6325808496504423E-9    2.6292219270048082E-9    2.479793959091578E-9     2.4581084709753596E-9    2.4563086888496597E-9
6.799999999999999E-10    0.022719415597648576     0.0033955077933715103    5.081115933476106E-4     7.606655461501415E-5     1.1393243099289726E-5    1.7076365269608853E-6    2.5894713973314595E-7    4.0913360253499093E-8    8.222157320839823E-9     3.3217686315008354E-9    2.577975563937355E-9     2.4711702762665268E-9    2.457601617608292E-9     2.456455169931237E-9
6.9E-10                  0.021479408966704652     0.003122554694328555     4.5445936103718435E-4    6.61878274817308E-5      9.63331794244026E-6      1.4051413442150502E-6    2.0762533045739886E-7    3.2365945735742995E-8    6.8185944280725656E-9    3.0939212917534436E-9    2.541483360999778E-9     2.465561790879855E-9     2.4571466866701794E-9    2.4566077006911768E-9
7.0E-10                  0.020310788613277005     0.0028731719324775955    4.0646531717079717E-4    5.7530686221723515E-5    8.148912985219197E-6     1.156357642667537E-6     1.6657326350746212E-7    2.5720408986446427E-8    5.75554194774208E-9      2.924729120581765E-9     2.515913448432176E-9     2.4614900604407804E-9    2.456698904742125E-9     2.4567602314511164E-9
7.099999999999999E-10    0.019213554537365625     0.002641207392317872     3.6351812200338907E-4    5.005351846134601E-5     6.895006850070132E-6     9.517231563461375E-7     1.33735822356856E-7      2.0553957616782058E-8    4.952617304153894E-9     2.7972464335611023E-9    2.4983561368138027E-9    2.4597349907963353E-9    2.45646436878703E-9      2.456912762211056E-9
7.2E-10                  0.01817743057129368      0.0024299579791314052    3.251551323490942E-4     4.353536454716975E-5     5.832633445608257E-6     7.833862714090645E-7     1.0746916136597956E-7    1.65375738335449E-8      4.346361664740964E-9     2.7023232462738355E-9    2.4860002038180204E-9    2.4581804236132313E-9    2.456443078804894E-9     2.4570652929709966E-9
7.3E-10                  0.017185732912033333     0.0022346715343834274    2.907756612134906E-4     3.785252687438405E-5     4.931222903978682E-6     6.445647453406752E-7     8.645840013190055E-8     1.3415280262353859E-8    3.885886292723085E-9     2.6345318577599105E-9    2.4760727374583634E-9    2.4575256022011596E-9    2.4565973603287516E-9    2.457217823730935E-9
7.399999999999999E-10    0.01625189214742919      0.002054762249098842     2.6011212336699897E-4    3.2937199842738115E-5    4.171219322954668E-6     5.304600435905604E-7     6.965178949572265E-8     1.098023380674155E-8     3.53794071965859E-9      2.5856426663358334E-9    2.469296566817455E-9     2.4572211491191406E-9    2.4567400080667645E-9    2.457370354490875E-9
7.5E-10                  0.015375908277481247     0.0018909507571661889    2.325900451232012E-4     2.8638480233066268E-5    3.5294232889776355E-6    4.366865326058033E-7     5.620805275382978E-8     9.085822129366259E-9     3.275206553758378E-9     2.5490553060632252E-9    2.4644472221568297E-9    2.456741530002881E-9     2.4568826558047775E-9    2.457522885250815E-9
7.6E-10                  0.014543486567013712     0.0017381780923049733    2.0808155204250848E-4    2.4906628072989608E-5    2.9866358532923634E-6    3.596039272667548E-7     4.545426533216111E-8     7.612839616011679E-9     3.076390760343396E-9     2.5234195295780342E-9    2.461106256542664E-9     2.456446299575369E-9     2.4570253035427905E-9    2.4576754160107544E-9
7.699999999999999E-10    0.013750517100827756     0.0015988525749636691    1.8604816930617663E-4    2.167446450927525E-5     2.5249013227719393E-6    2.9622867891091524E-7    3.685216387008242E-8     6.4676437754946075E-9    2.9247056714280887E-9    2.505164391384407E-9     2.4596941494835886E-9    2.456335457836604E-9     2.457167951280804E-9     2.4577249832680197E-9