% Model:              Post reunió 7 - Tau nula - grafica k vs ell - parametrics no tan heavy.mph
% Version:            COMSOL 5.4.0.388
% Date:               Jul 28 2024, 11:27
% Table:              Table 1 - Point Evaluation KCM 3 (T_KCM)
% Time (s)               ell=1.05E-7, Temperature (K), Point: (7.5E-8, 5E-8)ell=1.1E-7, Temperature (K), Point: (7.5E-8, 5E-8)ell=1.15E-7, Temperature (K), Point: (7.5E-8, 5E-8)ell=1.2E-7, Temperature (K), Point: (7.5E-8, 5E-8)ell=1.25E-7, Temperature (K), Point: (7.5E-8, 5E-8)ell=1.3E-7, Temperature (K), Point: (7.5E-8, 5E-8)ell=1.35E-7, Temperature (K), Point: (7.5E-8, 5E-8)ell=1.4E-7, Temperature (K), Point: (7.5E-8, 5E-8)ell=1.45E-7, Temperature (K), Point: (7.5E-8, 5E-8)ell=1.5E-7, Temperature (K), Point: (7.5E-8, 5E-8)ell=1.55E-7, Temperature (K), Point: (7.5E-8, 5E-8)ell=1.6E-7, Temperature (K), Point: (7.5E-8, 5E-8)ell=1.65E-7, Temperature (K), Point: (7.5E-8, 5E-8)ell=1.7E-7, Temperature (K), Point: (7.5E-8, 5E-8)ell=1.75E-7, Temperature (K), Point: (7.5E-8, 5E-8)ell=1.8E-7, Temperature (K), Point: (7.5E-8, 5E-8)ell=1.85E-7, Temperature (K), Point: (7.5E-8, 5E-8)ell=1.9E-7, Temperature (K), Point: (7.5E-8, 5E-8)ell=1.95E-7, Temperature (K), Point: (7.5E-8, 5E-8)ell=2E-7, Temperature (K), Point: (7.5E-8, 5E-8)ell=2.05E-7, Temperature (K), Point: (7.5E-8, 5E-8)ell=2.1E-7, Temperature (K), Point: (7.5E-8, 5E-8)ell=2.15E-7, Temperature (K), Point: (7.5E-8, 5E-8)ell=2.2E-7, Temperature (K), Point: (7.5E-8, 5E-8)ell=2.25E-7, Temperature (K), Point: (7.5E-8, 5E-8)ell=2.3E-7, Temperature (K), Point: (7.5E-8, 5E-8)ell=2.35E-7, Temperature (K), Point: (7.5E-8, 5E-8)ell=2.4E-7, Temperature (K), Point: (7.5E-8, 5E-8)ell=2.45E-7, Temperature (K), Point: (7.5E-8, 5E-8)ell=3.3E-7, Temperature (K), Point: (7.5E-8, 5E-8)ell=3.4E-7, Temperature (K), Point: (7.5E-8, 5E-8)
0                        0.9991698823552033       0.9991743142553493       0.9991782226719198       0.9991816854744778       0.9991847668299353       0.9991875199443555       0.999189989197934        0.9991922118186284       0.9991942192027826       0.9991960379638952       0.999197690770671        0.9991991970207154       0.9992005733852342       0.9992018342518786       0.9992029920867059       0.9992040577315354       0.9992050406494298       0.9992059491283016       0.9992067904505495       0.999207571034997        0.9992082965561543       0.9992089720448141       0.9992096019732348       0.9992101903275293       0.9992107406693993       0.9992112561889621       0.9992117397500975       0.9992121939294999       0.9992126210504059       0.9992172023946977       0.999217530470131
2.0000000000000002E-11   0.9476434716476471       0.9518507551242944       0.9555791913407097       0.9588961864054601       0.9618582145137579       0.9645127522108746       0.9668998603865788       0.9690537213247643       0.9710036061573665       0.9727730231998223       0.9743832577496103       0.9758525924922429       0.9771967941563833       0.9784295120459268       0.9795626058987053       0.9806064168258739       0.9815699921790719       0.9824612729632267       0.9832872506785697       0.9840531185140785       0.9847633003010481       0.9854251975893633       0.9860430518693171       0.9866206530007204       0.9871613952040782       0.9876683251907926       0.9881441836570813       0.9885914411578097       0.9890123292063215       0.9935437447596922       0.9938694370396879
4.0000000000000004E-11   0.8987063285433279       0.906723006213483        0.9138504377748993       0.9202103931726295       0.925905432420178        0.9310222208834711       0.9356342505038919       0.9398008988967804       0.9435697815302697       0.9470012467130642       0.9501329569408645       0.9529977167199495       0.9556241520654649       0.9580372949748551       0.9602590838086242       0.9623087905916619       0.9642033854891614       0.9659578476523303       0.9675854305005381       0.9690959219185887       0.9704975124053286       0.9718045912623849       0.9730253762424717       0.974167220811589        0.9752367197423308       0.9762398001352517       0.9771818000931584       0.9780675369032796       0.9789013662786192       0.9878979116953815       0.9885458899000221
6.0E-11                  0.852164562543806        0.863621539726146        0.8738491239762145       0.8830066986450033       0.8912234735768425       0.8986288795191409       0.9053220646015534       0.9113882221522357       0.9169007284124916       0.9219229458950378       0.9265097397471126       0.9307087508921181       0.9345614648141756       0.9381041094133611       0.9413595781292028       0.9443650389180552       0.9471479872130925       0.9497291562607659       0.952127025341378        0.9543563686350085       0.956429573919534        0.9583642266311888       0.9601722390628603       0.9618642877742883       0.963449962080297        0.9649378924524312       0.966335861827995        0.9676509023369729       0.9688893795574948       0.9822828041391576       0.9832496519627787
8.0E-11                  0.8079797131736415       0.8224939014859921       0.8355139209975971       0.8472219049311935       0.8577764063047051       0.8673150979744493       0.8759574085136          0.8838049740965606       0.8909435875758687       0.897460651271223        0.9034236496172141       0.9088915606673091       0.9139160340261467       0.9185423999331801       0.9228105320755503       0.9267555848491003       0.9304086233916945       0.9337971623607051       0.9369456272288108       0.9398726615971548       0.942594309995441        0.9451359115919726       0.9475127468944405       0.9497385366581834       0.9518256256061371       0.9537851419032486       0.9556271358890746       0.9573607010282296       0.9589940795840459       0.9767040154685831       0.9779857007788204
9.999999999999999E-11    0.7660225887930809       0.7833590797891847       0.79886380682646         0.8128701888337042       0.825546522054554        0.8370420473980883       0.8474884258933377       0.8570014676923251       0.8656828946171214       0.8736220202509482       0.8808972922148686       0.8875710743496115       0.8937112973106616       0.8993730145935684       0.9046030365464839       0.9094428181362979       0.9139291383082627       0.9180946888007429       0.9219685841040334       0.925573041104646        0.9289270898556867       0.932061280545063        0.9349940578844594       0.9377420105802667       0.9403200861341814       0.9427417779088798       0.9450192883575065       0.9471636717317462       0.9491849590911455       0.9711526920598396       0.9727462070018225
1.2E-10                  0.7258785528683154       0.7457648727376636       0.7637233917783894       0.7799524689765954       0.7945442250592186       0.8078257239349099       0.8199338136565774       0.8309910169485784       0.8411064998318436       0.8503772446109099       0.8588892747740755       0.8667188466169964       0.8739335631929119       0.8805933904138219       0.886745923671253        0.8924439269091485       0.8977316358163805       0.902646239408104        0.9072209749802126       0.9114814270576093       0.9154494570927253       0.9191597886903511       0.9226337859838345       0.9258906951682073       0.9289478850596529       0.9318210573289327       0.9345244305395874       0.9370709015292905       0.9394721871678361       0.9656317851208664       0.9675337804138928
1.3999999999999998E-10   0.6877514705064183       0.709820530555636        0.7298560266393281       0.7480560092038208       0.7646057225666221       0.7796661275849145       0.7932935718033189       0.8057756026028713       0.8172245322427639       0.8277416155273357       0.8374177487719807       0.8463343134029364       0.8545640628423509       0.8621719938827695       0.8692161701748369       0.8757484818751721       0.8818153353289861       0.8874518141827882       0.8927027998573482       0.8975978194560448       0.9021614117065568       0.9064314360278369       0.9104319311925658       0.9141845904220055       0.9177090223825518       0.9210229801634073       0.9241425624353176       0.9270823904208626       0.9298557638141173       0.9601412946516635       0.9623484210150318
1.6E-10                  0.6516413417073893       0.6755700268477264       0.6974209417642879       0.7173667414389894       0.7355784913642327       0.7522191249612264       0.7674401622498929       0.781355224655204        0.7940369918498826       0.8057151330002256       0.8164827142085841       0.8264240760274341       0.8356153753837208       0.8441252225106074       0.8520153468934568       0.8593412529253652       0.8661528428935877       0.8724949956506421       0.8784080961042299       0.8839222182999524       0.8890629536971811       0.8938762225575206       0.8983884935106533       0.9026236963416612       0.9066034981028782       0.9103475464123038       0.9138736840446967       0.9171981384064625       0.9203356890299894       0.954681220652231        0.9571901288052393
1.8E-10                  0.6175481664712286       0.6430133616139344       0.6664181371532685       0.6878963333176221       0.7075946785103854       0.7256615276435323       0.742240387744882        0.7574664186900237       0.7714647685645595       0.7842977970295796       0.7960841710838854       0.8069881344904892       0.8170875008170213       0.8264530762973358       0.8351490994541824       0.8432337396440697       0.8507596120504188       0.8577742832465126       0.8643207523447618       0.8704316856871142       0.8761347503462074       0.8814778408065428       0.8864897100159868       0.8911963949396028       0.8956215060108045       0.8997864831384161       0.9037108222795232       0.907412276121955        0.910907031999117        0.9492517213768144       0.9520591567676125
1.9999999999999998E-10   0.5849968105880134       0.6121505348542603       0.6368476128062702       0.6596447848397187       0.6806542840050793       0.7000021225984907       0.7178178063439316       0.7342282169989081       0.7493541389860526       0.763308454180661        0.7761953783875375       0.788026488792102        0.7989804391422525       0.8091555552429542       0.8186174278570131       0.8274259420312849       0.8356356427994793       0.8432961353227849       0.8504524922519785       0.8571399843588605       0.8633884012846698       0.8692460752586187       0.8747438384618322       0.8799096570083735       0.8847689298322271       0.8893447541040682       0.893658160992718        0.897728325185821        0.9015727512113014       0.9438527018728659       0.9469553531122932
2.2E-10                  0.5539297852192934       0.5824360813397058       0.6087093687232927       0.6326120960052791       0.6547573078483152       0.6752409098261012       0.6941724180470418       0.7116657778089499       0.7278337567712472       0.7427846456756428       0.7566204434440473       0.769435989381561        0.7812941903594147       0.7922326593474631       0.8024203321019492       0.8119178600870116       0.8207809351407697       0.8290605518794586       0.8368033158258799       0.8440471143151917       0.8508239065125687       0.8571809259137488       0.8631508788481899       0.8687634825479733       0.8740457695671461       0.8790223593092593       0.8837157001842811       0.8881462855980611       0.8923328466665426       0.9384841621403859       0.9418787178392812
2.4E-10                  0.5245885552387219       0.5540271019337377       0.5814296491293094       0.6067982668143035       0.6299037500400926       0.6513778893263635       0.6713042228542125       0.689779101120149        0.706903621920143        0.7227785982024653       0.7375015145174594       0.7511647839730483       0.7638548505123998       0.7756518345274985       0.7865578121889903       0.7967094938112496       0.8061954890742895       0.8150675329165339       0.8233732230664662       0.8311530755561077       0.8384412660299041       0.8452823927719328       0.8517108311750595       0.8577578715584018       0.8634520252155616       0.8688192987539901       0.8738834398542126       0.8786661573586747       0.8831873183648404       0.9331461021793744       0.9368292509485767
2.6E-10                  0.49697312064629884      0.5270674481459842       0.5552985093550844       0.5816352573618089       0.6060936105804116       0.6284130610992784       0.6492132207654441       0.6685681869325053       0.6865637344327402       0.7032903117611284       0.7188385916077737       0.7332967198545708       0.7467486916576493       0.7592734718418379       0.7709446021300799       0.7818008432039985       0.791879304600039        0.8013170784340111       0.8101622139737372       0.8184578680816086       0.8262404798366759       0.8335504758331709       0.8404236954424413       0.8468928240396592       0.8529876967774734       0.8587355724382604       0.8641613800025123       0.8692879404676621       0.8741361663061953       0.9278385219898315       0.9318069524401795
2.7999999999999996E-10   0.4710834814420241       0.5015571199764453       0.5303928954364459       0.5574769935375041       0.5827910696310807       0.6063464251448453       0.6278994117807364       0.6480330352460189       0.6668140943090386       0.6843197863516324       0.7006316747149903       0.7158317970261284       0.7300002148778598       0.7432135327482752       0.755544065756797        0.767059438561658        0.777822466922541        0.7878091884318901       0.797170288547693        0.8059614918916943       0.8142215479328843       0.8219851750974629       0.8292894716503352       0.8361683399917457       0.8426527842528817       0.8487711803620699       0.8545495206291805       0.8600116349250231       0.8651793904906064       0.922561421571757        0.9268118223140898
3.0E-10                  0.44600193449887615      0.47749611742512066      0.5067128073733934       0.5343616439612304       0.5603577799076763       0.5846942943126955       0.607362795900089        0.6281736460606897       0.6476547015490384       0.6658670219739768       0.6828807638391092       0.698770015487721        0.7136094201730314       0.7274720172468103       0.7404279119834203       0.7525435071915456       0.7638811130452966       0.7744988085852508       0.7843974467883335       0.7936639469863649       0.8023844703185289       0.810586490564809        0.8183081597987413       0.8255844194146611       0.8324472876417864       0.8389261225254189       0.8450478617342171       0.8508372407307578       0.8563169909180748       0.917314800925151        0.9218438605703074
3.2E-10                  0.4222283539894779       0.4543374730097351       0.48425824516592736      0.5122892086329882       0.5388172893016385       0.5637819556684058       0.5871861533955834       0.608990019376518        0.6290855561527392       0.6479320186281621       0.6655858589801307       0.6821113752393487       0.6975763075431642       0.7120489253374436       0.7255961408099496       0.7382823280664089       0.750168626128893        0.7613125714606547       0.771767952830454        0.7815652333656202       0.7907292469936099       0.7993544222352089       0.8074797598876593       0.8151410623084052       0.8223712069441875       0.8292003989283073       0.8356564033176219       0.8417647578848663       0.8475489675885995       0.9120986600500134       0.9169030672088325
3.3999999999999996E-10   0.3998261913084801       0.43207440960866855      0.46281199866540096      0.4912596875527768       0.5181695978129669       0.543638154292713        0.5676249317110986       0.5901411383962388       0.6111066581201414       0.6305147763141877       0.6487469601380543       0.6658558762810116       0.681900876988258        0.6969442570201748       0.711048752236385        0.7242759011862481       0.7366850061733302       0.7483325093394735       0.7592716546072616       0.7695327470385439       0.7791395372074261       0.7881866468265349       0.7967140623593525       0.8047585545770722       0.8123539442180612       0.819531349039204        0.8263194123156598       0.8327445132959577       0.8388309604110613       0.9069046374536802       0.9119823885623733
3.6E-10                  0.3787954464558826       0.4109630672045053       0.44190791524268735      0.47127308072059665      0.4984147054416618       0.5242628901856172       0.5487287149403736       0.5717881725944641       0.5934592114969524       0.6136152950320541       0.6323640673128801       0.6500035186127098       0.6665831285083129       0.682158012295004        0.6967857462627267       0.7105242265510632       0.7234302531786084       0.7355586222217068       0.7469615732049969       0.7576696244425154       0.7677058282105227       0.7771627491137754       0.7860812302031718       0.7944988960730335       0.80245040897387         0.8099677088270776       0.8170802366667915       0.8238151415906687       0.830197471678553        0.9017392365193346       0.9070873108166011
3.8E-10                  0.3589683411160801       0.39100344579724544      0.4219777097258628       0.451668599317682        0.4795526121877231       0.5056561633471185       0.5304975030834088       0.5540134230128572       0.5761931724739926       0.5970600622267439       0.6164371805046085       0.6345543022344426       0.6516230621033288       0.6676901911619312       0.6828071228889742       0.6970273041608539       0.7104043671447275       0.7229909101073548       0.7348377086236606       0.7459758655775348       0.7564281200029002       0.7662827290969303       0.7755812634191172       0.7843620867962888       0.7926606012116145       0.8005094782919282       0.8079388763710171       0.8149766427690004       0.8216485013910749       0.8966024572469765       0.9022178339715161
3.9999999999999996E-10   0.3397681936592784       0.3721955453868891       0.40302138211492716      0.43282362309423256      0.46131086402589194      0.4878179737772167       0.5129312961402042       0.536816889651418        0.5594321789156067       0.5807770008014462       0.6008788206835264       0.6195082271462109       0.6370206777733058       0.6535407936209562       0.669112882115128        0.6837851340156208       0.6976073480716874       0.7106293729964174       0.7229000608632523       0.7344514704436019       0.7453064125845582       0.7555465867759996       0.7652141620071888       0.7743481267468384       0.7829845209312947       0.7911566574337556       0.7988953314283362       0.8062290168309519       0.8131840495486271       0.8914942996366061       0.8973739580271181
4.2E-10                  0.3216429109317931       0.3541758823424346       0.3850389324098804       0.41480741160877543      0.4434663051865539       0.470748321475912        0.49603009411075943      0.5201985725101469       0.5431762308217947       0.5649369620915569       0.5854889626988955       0.6048628175521393       0.6227759755182438       0.6397098196720794       0.6557030239411878       0.6707977161153633       0.6850391959594883       0.6984740108888947       0.7111486299237721       0.7230964390407169       0.7343407059554966       0.7449543221509833       0.7549799259673864       0.7644570159246822       0.7734221681329101       0.7819092462525602       0.7899496018387495       0.7975722637765237       0.8048041161512092       0.8864147636882231       0.8925556829834072
4.4E-10                  0.3045924929336242       0.33678034252302774      0.3680303606107227       0.3976199648613109       0.4263312211383876       0.45388076673127387      0.47979389699507474      0.5041584715890435       0.5274253281925566       0.5495399460970762       0.570489286866313        0.5902880630527085       0.608888955338143        0.6261972693153004       0.6425775483671539       0.6580650504600818       0.67269991080813         0.6865248237847865       0.6995834158052202       0.7119107713688797       0.7235310001157158       0.7345059352218817       0.7448785552997101       0.7546887543298202       0.7639735428164611       0.7727672447483414       0.7811016876022564       0.7890063836057157       0.7965087011988216       0.8813638494018279       0.8877630088403831
4.5999999999999996E-10   0.28861693966477187      0.3202874791944841       0.3515145514433667       0.3812612828518388       0.4099056118813933       0.4375717006149782       0.4640495495909752       0.4886965868881078       0.5121794710278926       0.5345859528180045       0.5558797931857783       0.5760582570706999       0.5951410582792686       0.6130031425506195       0.6297364553930259       0.645587137049776        0.6605894926176125       0.6747818116840931       0.6882044185075963       0.7008944674280903       0.7128772950652155       0.7242014259886943       0.73491005000416         0.7450433419622522       0.7546386449819477       0.7637306529210998       0.7723515887188573       0.7805313763185278       0.7882978046914638       0.8763415567774199       0.882995935598046
4.8E-10                  0.2735179480069118       0.30469729235680343      0.3356092431371303       0.365731365580359        0.39418947741557064      0.4218733636324115       0.4485150334126358       0.47381291840734         0.4974386593278025       0.5200749822543412       0.5416604816572917       0.5621733996061133       0.581619061059474        0.6000209436366699       0.617179745018804        0.6333639758844463       0.6487079413879357       0.6632449745868142       0.6770116380309005       0.6900475272183487       0.7023795908039957       0.7140407944514213       0.7250744100807358       0.7355207788219787       0.7454174746293698       0.7547994707708349       0.763699305188552        0.77214724191496         0.7801714266291362       0.8713478858149998       0.8782544632563962
4.999999999999999E-10    0.2591464842766428       0.2900097820099859       0.32046722572076963      0.35050260713201387      0.37918281774091983      0.40678575578357395      0.43350897342927897      0.45915314286083364      0.4832028930922864       0.5060070344060866       0.5278313522808534       0.5486334906589492       0.5684031152162546       0.5871517954485752       0.6049057672359583       0.6213955669640923       0.6370552571191002       0.65191431249295         0.6660050743751331       0.679369950739655        0.6920378873320565       0.7040240406100629       0.715371635529438        0.7261210649089994       0.7363100317587273       0.7459736982975471       0.7551448370113405       0.7638539803950124       0.7721295670118387       0.8663828365145669       0.8735385918154335
5.2E-10                  0.24558405602612995      0.27609735851514083      0.3060884991942845       0.33584660195984223      0.3648856328574408       0.39230887706846534      0.4190313696409046       0.444804632904508        0.4694721723213442       0.4923821092732407       0.514392405056463        0.5354385302292074       0.5554932207496098       0.574555107129267        0.592640537224766        0.6096819102887142       0.6256314398111052       0.6407898254025004       0.6551847275402936       0.6688617379920092       0.681852184649398        0.6941511644646188       0.7058017263502662       0.7168442002233142       0.7273163163700205       0.7372533355012361       0.7466881841872228       0.755651591758685        0.7641722258395716       0.861446408876122        0.8688483212751575
5.4E-10                  0.23278799315734894      0.2627627450888691       0.2924730635576751       0.32184015407457545      0.35078320151181214      0.37844272748708585      0.40508222204751276      0.4309156116077718       0.4557575080786139       0.47920020685580345      0.5013436399841207       0.5225885183168877       0.5428893776595399       0.5622308786787455       0.5806186399043436       0.5980726057161172       0.6144364894639511       0.6298715133154654       0.6445505975263821       0.658522888975411        0.6718224827560199       0.6844221660150891       0.6963646825432204       0.7076901847649233       0.718436328463249        0.7286383823819021       0.7383293467161988       0.7475400760059777       0.7562994031123341       0.8565386028996644       0.8641836516355688
5.599999999999999E-10    0.22071562557227525      0.25011677387828996      0.27957759817594646      0.3084832634762136       0.33718922138769447      0.3651873070394354       0.3916615306491035       0.4174860789706255       0.44243392264284515      0.46636857199571885      0.48868505706382653      0.5100834549219904       0.5305915859460448       0.5501791100970106       0.5688400752746913       0.5865854988202597       0.6034379712941079       0.6191593762318451       0.6341026843333989       0.6483534036898608       0.6619487816519224       0.6748370452614739       0.6870605041083008       0.6986590185338264       0.7096700680384133       0.720128838939545        0.7300683245982689       0.7395194331368904       0.748511098830127        0.8516594185851944       0.8595445828966672
5.8E-10                  0.20929596870799022      0.23812660603198396      0.26712476322563694      0.29577593016475645      0.3241513039030441       0.35208710524494824      0.3787692954456766       0.40451603499306876      0.42951167988943073      0.4535864052443116       0.4764166562955804       0.4979233400445153       0.5185998456091244       0.5383998013840621       0.557304843335809        0.5753163713880364       0.5924495249834714       0.6086534141516395       0.6238409879613438       0.6383532821353584       0.6522310813371057       0.6653958022037731       0.6778891910455073       0.6897507015300239       0.7010175350955129       0.7117247051741651       0.7219051178334326       0.7315896631514236       0.74080731299295         0.8468088559327119       0.8549311150584525
6.0E-10                  0.19849116385864368      0.2267594026985318       0.2552634781659296       0.2837181541402043       0.31166944905786087      0.33940755148077073      0.3664055164372324       0.3920054796751018       0.41699077981837074      0.44115629403130263      0.4643766579906528       0.4861081736844624       0.5069141566487789       0.5268929525399002       0.5460129440876966       0.5642652234194468       0.5816569093716597       0.5982062384850172       0.6137655084102168       0.6285225243119037       0.6426693818115693       0.656098436841987        0.6688507433548398       0.6809652337535155       0.692478729634548        0.7034259810857619       0.7138397264216902       0.7237507660495766       0.733188045600803        0.8419869149422172       0.8503432481209249
6.199999999999999E-10    0.1882588363438597       0.2159751759612507       0.24396820880478823      0.2720684263024169       0.2997436568521451       0.32720666734829396      0.3542077017132393       0.3799544130167245       0.4048712224296651       0.4290782383566919       0.45242170369968426      0.4746379558418319       0.4955345190650083       0.515658563564525        0.5349643775303544       0.5534320549144915       0.5710601244586728       0.5878601127961158       0.603852531526778        0.618861130219497        0.6332636830753136       0.6469449491761151       0.6599451610362985       0.6723026152043013       0.6840536516555187       0.6952326666743358       0.7058721503630416       0.7160027418313499       0.7256532966536862       0.8371935956137099       0.8457809820840843
6.4E-10                  0.1785527660506222       0.2057197037018728       0.23321342095017672      0.26088855488264073      0.2883739272858964       0.31548445284751786      0.342324679407152        0.3683628350179369       0.39315300772331385      0.41735223822047934      0.4407768144956522       0.4633130264073895       0.48446093285781233      0.5046966344579363       0.5241591436637822       0.54281686587317         0.5606591702445108       0.5776904014067046       0.5939254409697572       0.609369099858138        0.6240139851283384       0.6379353392061576       0.6511724440898833       0.6637628458823814       0.6757423011584248       0.6871447619398864       0.698002389657487        0.7083455904967434       0.7182030661515995       0.8324288979471901       0.8412443169479307
6.6E-10                  0.16934169014447098      0.19597120138270666      0.2229735804100591       0.25020079569359627      0.2774672244912913       0.3042409079784424       0.33085584429431636      0.35698393067996853      0.38183613569931696      0.4059782936226651       0.4294419903785565       0.45208930733802305      0.4736933980271913       0.4940071652201343       0.51359724248798         0.5324196562954826       0.550454046729174        0.5676971043167838       0.5841576874644993       0.5998411925628648       0.6147390793850614       0.6289092964333267       0.6423904916656615       0.6552197238829346       0.6674323852630002       0.6790621660056184       0.6901410509939232       0.7006993404502572       0.7107656882407432       0.8276656811169982       0.8367102501968811
6.799999999999999E-10    0.16068537698097146      0.1866940979926387       0.21320809825023168      0.239985103518016        0.2668864760048255       0.2934760327410677       0.3198011963747324       0.34580204487738836      0.37092060635767454      0.3949564045632492       0.41841723134839726      0.44113970781613243      0.46302173309733885      0.48359015585111875      0.5032786740029479       0.5222404261814291       0.5404447539126619       0.557880221526353        0.5745492710110041       0.5904585030380558       0.6055988557739377       0.6200082712977292       0.6337246868665152       0.6467846038278618       0.6592229859224209       0.671073203174587        0.6823670108233233       0.6931345548643909       0.7034043974979995       0.8229278929104809       0.8321990781682145