% Model:              Post reunió 7 - Tau nula - grafica k vs ell - parametrics no tan heavy.mph
% Version:            COMSOL 5.4.0.388
% Date:               Jul 28 2024, 16:40
% Table:              Table 1 - Point Evaluation KCM 1 (T_KCM)
% Time (s)               ell=1.3E-9, Temperature (K), Point: (7.5E-8, 5E-8)ell=4.64E-9, Temperature (K), Point: (7.5E-8, 5E-8)ell=7.98E-9, Temperature (K), Point: (7.5E-8, 5E-8)ell=1.132E-8, Temperature (K), Point: (7.5E-8, 5E-8)ell=1.466E-8, Temperature (K), Point: (7.5E-8, 5E-8)ell=1.8E-8, Temperature (K), Point: (7.5E-8, 5E-8)ell=1.3E-9, Temperature (K), Point: (7.5E-8, 5E-8)ell=4.64E-9, Temperature (K), Point: (7.5E-8, 5E-8)ell=7.98E-9, Temperature (K), Point: (7.5E-8, 5E-8)ell=1.132E-8, Temperature (K), Point: (7.5E-8, 5E-8)ell=1.466E-8, Temperature (K), Point: (7.5E-8, 5E-8)ell=1.8E-8, Temperature (K), Point: (7.5E-8, 5E-8)ell=1.3E-9, Temperature (K), Point: (7.5E-8, 5E-8)ell=2.97E-9, Temperature (K), Point: (7.5E-8, 5E-8)ell=4.64E-9, Temperature (K), Point: (7.5E-8, 5E-8)ell=6.31E-9, Temperature (K), Point: (7.5E-8, 5E-8)ell=7.98E-9, Temperature (K), Point: (7.5E-8, 5E-8)ell=9.65E-9, Temperature (K), Point: (7.5E-8, 5E-8)ell=1.132E-8, Temperature (K), Point: (7.5E-8, 5E-8)ell=1.299E-8, Temperature (K), Point: (7.5E-8, 5E-8)ell=1.466E-8, Temperature (K), Point: (7.5E-8, 5E-8)ell=1.633E-8, Temperature (K), Point: (7.5E-8, 5E-8)ell=1.8E-8, Temperature (K), Point: (7.5E-8, 5E-8)
0                        0.9990736477125886       0.9991009422333534       0.9991084627923363       0.9991170735896324       0.9991266032178047       0.9991363429833094       0.9990736477125886       0.9991009422333534       0.9991084627923363       0.9991170735896324       0.9991266032178047       0.9991363429833094       0.9990736477125886       0.9990959564605453       0.9991009422333534       0.9991046445739352       0.9991084627923363       0.9991126117002748       0.9991170735896324       0.9991217686745588       0.9991266032178046       0.9991314874433413       0.9991363429833094
1.0E-11                  0.668088592666922        0.6685814725391168       0.6816389373381962       0.7011037513707457       0.7238922313308617       0.7480829792506435       0.668088592666922        0.6685814725391168       0.6816389373381962       0.7011037513707457       0.7238922313308617       0.7480829792506435       0.6680885926669109       0.6753992818592821       0.668581472539109        0.6737886894167828       0.6816389373381825       0.6908267345594057       0.7011037513707236       0.7122096584656203       0.7238922313309823       0.7359187580714055       0.7480829792506144
2.0E-11                  0.4406278015836573       0.4447088312416736       0.4630228801220856       0.4895906489164461       0.521855022116913        0.5576197641137426       0.4406278015836573       0.4447088312416736       0.4630228801220856       0.4895906489164461       0.521855022116913        0.5576197641137426       0.4406278015836368       0.45388938173164345      0.4447088312416567       0.4522614101916621       0.46302288012199366      0.47552560308497394      0.48959064891701964      0.5051331590807681       0.5218550221162508       0.5394498611386506       0.5576197641137746
3.0E-11                  0.2863382251502584       0.29538118030871985      0.31349512957656006      0.3414473622146638       0.37597649696906915      0.4150459880141335       0.2863382251502584       0.29538118030871985      0.31349512957656006      0.3414473622146638       0.37597649696906915      0.4150459880141335       0.2863382251502465       0.30091128504800907      0.29538118030869365      0.30270774452905924      0.3134951295761011       0.32647156722951454      0.34144736221502736      0.35817510096430577      0.37597649696722657      0.3949748712727358       0.41504598801427656
4.0E-11                  0.18543911183389306      0.19627215514500762      0.2135107229181089       0.23853864848749015      0.27085321407672364      0.3087756026740981       0.18543911183389306      0.19627215514500762      0.2135107229181089       0.23853864848749015      0.27085321407672364      0.3087756026740981       0.18543911183388806      0.19976043737606095      0.1962721551449042       0.20399025052129174      0.21351072291738246      0.22505181744415648      0.23853864848841624      0.2538592353533189       0.2708532140750227       0.2891911057766825       0.308775602674349
4.9999999999999995E-11   0.12032539458335693      0.1316220522939769       0.14641455840496212      0.1677758433094484       0.19615828894516213      0.23052632843561183      0.12032539458335693      0.1316220522939769       0.14641455840496212      0.1677758433094484       0.19615828894516213      0.23052632843561183      0.12032539458335413      0.1330759937682815       0.1316220522938732       0.1384235950813148       0.14641455840432277      0.15620151068378862      0.16777584331037115      0.18116412100055151      0.19615828894308668      0.21265300136479293      0.23052632843597082
6.0E-11                  0.07784067432539005      0.08879229684092096      0.1008386229844543       0.11858210183179493      0.14273232998498228      0.172807169971571        0.07784067432539005      0.08879229684092096      0.1008386229844543       0.11858210183179493      0.14273232998498228      0.172807169971571        0.077840674325392        0.08812775658749449      0.08879229684084561      0.09425656964458964      0.10083862298403976      0.108925352765284        0.11858210183254214      0.12987740839290457      0.14273232998317412      0.1570439984054677       0.1728071699718593
6.999999999999999E-11    0.05051596113780538      0.05988732961518492      0.06937278504852429      0.08389421074372214      0.1041581897456901       0.12999726308232862      0.05051596113780538      0.05988732961518492      0.06937278504852429      0.08389421074372214      0.1041581897456901       0.12999726308232862      0.05051596113780649      0.0580484139132975       0.0598873296151492       0.06408533928871903      0.06937278504835138      0.0759540873434062       0.08389421074417788      0.09328502466222864      0.10415818974437019      0.11636388306574029      0.12999726308258092
8.0E-11                  0.0329993018389862       0.04029379561979245      0.04762675933285395      0.059276853971911195     0.07596533149722917      0.09793946879885847      0.0329993018389862       0.04029379561979245      0.04762675933285395      0.059276853971911195     0.07596533149722917      0.09793946879885847      0.032999301838987055     0.03822755082046214      0.04029379561978311      0.04352663023010621      0.047626759332768456     0.05287149198329387      0.05927685397212697      0.06693332736734454      0.07596533149645719      0.08624971574810399      0.09793946879903635
9.0E-11                  0.021611880439609286     0.027088721363006846     0.0326824432842369       0.0418317808475535       0.055330674569231866     0.07372908761351729      0.021611880439609286     0.027088721363006846     0.0326824432842369       0.0418317808475535       0.055330674569231866     0.07372908761351729      0.02161188043960991      0.025380210076865462     0.027088721363003096     0.02951352440896495      0.03268244328422714      0.03676174053494823      0.04183178084763259      0.04797078734809149      0.05533067456886881      0.06386835084047326      0.0737290876136306
9.999999999999999E-11    0.014257207306633417     0.0181626899723566       0.02237192588740531      0.029476773087238756     0.04026699225930943      0.05543954378193323      0.014257207306633417     0.0181626899723566       0.02237192588740531      0.029476773087238756     0.04026699225930943      0.05543954378193323      0.014257207306633893     0.01696427658713993      0.01816268997235696      0.019957934159568813     0.022371925887419652     0.025512815463041696     0.02947677308724244      0.03435764227630396      0.04026699225917416      0.0472467547668444       0.055439543781994505
1.1E-10                  0.009468474676090773     0.012143513658811366     0.015276133571987809     0.020725370340731714     0.029266596901493448     0.041658177670185884     0.009468474676090773     0.012143513658811366     0.015276133571987809     0.020725370340731714     0.029266596901493448     0.041658177670185884     0.009468474676091056     0.011352182705450065     0.012143513658812218     0.013461432519673834     0.015276133572002918     0.01766680129494311      0.020725370340719716     0.02456151069734317      0.02926659690149402      0.03493222359104252      0.04165817767021482
1.2E-10                  0.006280384628879847     0.008094884132938698     0.010403431401532964     0.014542053699026603     0.021234818064143294     0.031273797618346665     0.006280384628879847     0.008094884132938698     0.010403431401532964     0.014542053699026603     0.021234818064143294     0.031273797618346665     0.006280384628879929     0.007616471059472602     0.008094884132940145     0.009052092607239614     0.010403431401549045     0.012204253736216707     0.014542053699011792     0.01752334284080512      0.021234818064178644     0.025791573121688973     0.03127379761835124
1.3E-10                  0.004145954677525696     0.005375978558248778     0.007059976478825621     0.01018044306412798      0.015382357606654266     0.023446940896672444     0.004145954677525696     0.005375978558248778     0.007059976478825621     0.01018044306412798      0.015382357606654266     0.023446940896672444     0.004145954677525664     0.00510573313713084      0.005375978558250648     0.006065701600439238     0.007059976478843001     0.008403428432184338     0.010180443064109425     0.012476369353079634     0.015382357606694486     0.019008929100511277     0.023446940896667316
1.3999999999999998E-10   0.0027350437167168603    0.0035659336202555477    0.0047834377184034485    0.007106406390583083     0.011123541633505318     0.01755596284481186      0.0027350437167168603    0.0035659336202555477    0.0047834377184034485    0.007106406390583083     0.011123541633505318     0.01755596284481186      0.0027350437167167926    0.0034129135507510243    0.003565933620257717     0.004060099480172654     0.0047834377184223665    0.005771817316426687     0.0071064063905620315    0.00885857378660376      0.011123541633548284     0.013986233244711236     0.017555962844805085
1.5E-10                  0.0018038598229679088    0.002360148735752552     0.0032339508274714566    0.004955800294778854     0.008024005882926033     0.013122718215901533     0.0018038598229679088    0.002360148735752552     0.0032339508274714566    0.004955800294778854     0.008024005882926033     0.013122718215901533     0.0018038598229677722    0.0022769414048520197    0.002360148735754486     0.0027120480216560982    0.003233950827489846     0.003960238275301302     0.004955800294755059     0.0062757142099752914    0.008024005882971991     0.010275509298657684     0.013122718215896754
1.6E-10                  0.0011875912471126528    0.0015638748365406677    0.00218720162266064      0.0034497345985525663    0.005775913806236554     0.009792851623507149     0.0011875912471126528    0.0015638748365406677    0.00218720162266064      0.0034497345985525663    0.005775913806236554     0.009792851623507149     0.0011875912471124763    0.0015159976110532061    0.0015638748365423396    0.0018139567764090896    0.0021872016226766374    0.00271358323116949      0.0034497345985285387    0.004443698597873948     0.005775913806281039     0.007532096018339097     0.009792851623499108
1.6999999999999998E-10   7.776360720649941E-4     0.0010354353521170464    0.0014782535670927167    0.0024012084345880454    0.00415573648503992      0.007295089214312113     7.776360720649941E-4     0.0010354353521170464    0.0014782535670927167    0.0024012084345880454    0.00415573648503992      0.007295089214312113     7.776360720647846E-4     0.0010073245756286873    0.001035435352118156     0.0012123837924458809    0.001478253567104842     0.001861267472605714     0.0024012084345673822    0.0031412212173390587    0.004155736485094609     0.005513946048262008     0.007295089214303584
1.8E-10                  5.052762919331199E-4     6.907900736855833E-4     0.0010019053568516537    0.0016711197635393563    0.0029860073060036835    0.005431832245363977     5.052762919331199E-4     6.907900736855833E-4     0.0010019053568516537    0.0016711197635393563    0.0029860073060036835    0.005431832245363977     5.052762919328835E-4     6.680433783843773E-4     6.907900736859613E-4     8.165684151815455E-4     0.001001905356859037     0.0012760688538922074    0.0016711197635212397    0.002222099838647386     0.0029860073060543205    0.00403209111825859      0.005431832245355328
1.9E-10                  3.2556328875229005E-4    4.6471484989587804E-4    6.853253370156557E-4     0.001164078940199747     0.002147916800440947     0.0040370119120752505    3.2556328875229005E-4    4.6471484989587804E-4    6.853253370156557E-4     0.001164078940199747     0.002147916800440947     0.0040370119120752505    3.25563288752069E-4      4.4297737052741474E-4    4.647148498959582E-4     5.544010189565009E-4     6.853253370199203E-4     8.803731965858759E-4     0.001164078940187365     0.001570439850893379     0.0021479168004856393    0.002945634494531065     0.0040370119120662976
1.9999999999999998E-10   2.084154273791679E-4     3.131944173585256E-4     4.7175665915176105E-4    8.170416633457794E-4     0.0015433863390896647    0.0029993178450476504    2.084154273791679E-4     3.131944173585256E-4     4.7175665915176105E-4    8.170416633457794E-4     0.0015433863390896647    0.0029993178450476504    2.0841542737897213E-4    2.939452632048248E-4     3.1319441735849855E-4    3.7719557896779014E-4    4.7175665915454186E-4    6.117242868088285E-4     8.170416633378957E-4     0.0011117188393282283    0.0015433863391245476    0.0021546651559116088    0.002999317845039434
2.1E-10                  1.3291856603733077E-4    2.0981290618298418E-4    3.2405652046360253E-4    5.767981631198008E-4     0.0011105713908562572    0.0022308496307829116    1.3291856603733077E-4    2.0981290618298418E-4    3.2405652046360253E-4    5.767981631198008E-4     0.0011105713908562572    0.0022308496307829116    1.329185660371204E-4     1.950654053467086E-4     2.0981290618284407E-4    2.5524246668398934E-4    3.2405652046576107E-4    4.2660599105481676E-4    5.767981631143953E-4     7.928710204271004E-4     0.0011105713908794415    0.0015741702416554194    0.0022308496307756587
2.2E-10                  8.456748098619752E-5     1.399504226624303E-4     2.211839721619456E-4     4.077556749690488E-4     8.046860142896877E-4     0.0016572895570520487    8.456748098619752E-5     1.399504226624303E-4     2.211839721619456E-4     4.077556749690488E-4     8.046860142896877E-4     0.0016572895570520487    8.456748098595703E-5     1.2947139962074988E-4    1.3995042266218933E-4    1.7188584180720384E-4    2.211839721634691E-4     2.9650067856688394E-4    4.077556749649023E-4     5.683894416667066E-4     8.046860143039107E-4     0.001151123651694541     0.001657289557046149
2.2999999999999998E-10   5.352320391505278E-5     9.385608588586381E-5     1.507677504929549E-4     2.871539823774855E-4     5.857855864669925E-4     0.00123211805939796      5.352320391505278E-5     9.385608588586381E-5     1.507677504929549E-4     2.871539823774855E-4     5.857855864669925E-4     0.00123211805939796      5.35232039148127E-5      8.604737200592097E-5     9.385608588556012E-5     1.1622708346839376E-4    1.507677504938092E-4     2.047403490377341E-4     2.8715398237424657E-4    4.0800717740102394E-4    5.857855864762571E-4     8.469025251062784E-4     0.0012321180593939034
2.4E-10                  3.359119094155511E-5     6.348246867793174E-5     1.0347135470897248E-4    2.0123724624632037E-4    4.2721977842343026E-4    9.205736387534442E-4     3.359119094155511E-5     6.348246867793174E-5     1.0347135470897248E-4    2.0123724624632037E-4    4.2721977842343026E-4    9.205736387534442E-4     3.359119094134659E-5     5.7247276530178336E-5    6.348246867759409E-5     7.93111396230119E-5      1.0347135470939494E-4    1.4157686389361027E-4    2.012372462439106E-4     2.9194048002206753E-4    4.272197784304713E-4     6.257610810354152E-4     9.205736387510219E-4
2.4999999999999996E-10   2.0857542480761647E-5    4.287001147074108E-5     7.151555136267346E-5     1.411826586032041E-4     3.10833167239472E-4      6.905321401599325E-4     2.0857542480761647E-5    4.287001147074108E-5     7.151555136267346E-5     1.411826586032041E-4     3.10833167239472E-4      6.905321401599325E-4     2.0857542480488194E-5    3.803289509346992E-5     4.2870011470386985E-5    5.418012679004789E-5     7.151555136290987E-5     9.871946969030873E-5     1.4118265860154952E-4    2.0775239584282668E-4    3.108331672452073E-4     4.639738449765453E-4     6.905321401584171E-4
2.6E-10                  1.2584226143360179E-5    2.8633974294698784E-5    4.932693433767626E-5     9.99068598079877E-5      2.2491733036373066E-4    5.20249553595675E-4      1.2584226143360179E-5    2.8633974294698784E-5    4.932693433767626E-5     9.99068598079877E-5      2.2491733036373066E-4    5.20249553595675E-4      1.2584226142997344E-5    2.5174297632357636E-5    2.863397429433401E-5     3.6678403767920056E-5    4.932693433783684E-5     6.914118483305925E-5     9.990685980677083E-5     1.4800360491583656E-4    2.2491733036788378E-4    3.4333007656507837E-4    5.202495535947101E-4
2.7E-10                  7.329770701353466E-6     1.8953885295615865E-5    3.370084447867043E-5     7.095720114218634E-5     1.6273840264826765E-4    3.912857453309872E-4     7.329770701353466E-6     1.8953885295615865E-5    3.370084447867043E-5     7.095720114218634E-5     1.6273840264826765E-4    3.912857453309872E-4     7.329770701144599E-6     1.65979076194824E-5      1.895388529524201E-5     2.4583860272099076E-5    3.370084447877498E-5     4.8211272589852495E-5    7.095720114115314E-5     1.061374537561687E-4     1.627384026507995E-4     2.529441674629601E-4     3.912857453302074E-4
2.7999999999999996E-10   3.7419957061685225E-6    1.2566044396086457E-5    2.2843340622247528E-5    5.0174378881609596E-5    1.1823323040534124E-4    2.935271167078368E-4     3.7419957061685225E-6    1.2566044396086457E-5    2.2843340622247528E-5    5.0174378881609596E-5    1.1823323040534124E-4    2.935271167078368E-4     3.741995706179179E-6     1.0903127332219139E-5    1.2566044395708492E-5    1.646558266874853E-5     2.2843340622297246E-5    3.3315540823698314E-5    5.017437888070716E-5     7.64704250252337E-5      1.1823323040677171E-4    1.8595600078237534E-4    2.9352711670720843E-4
2.9E-10                  1.3803977425910524E-6    8.380043053702296E-6     1.5502116631881495E-5    3.519673589743391E-5     8.638543097360357E-5     2.193015535321164E-4     1.3803977425910524E-6    8.380043053702296E-6     1.5502116631881495E-5    3.519673589743391E-5     8.638543097360357E-5     2.193015535321164E-4     1.3803977423269137E-6    7.114272310043464E-6     8.380043053320228E-6     1.1105607207825138E-5    1.5502116631888753E-5    2.2891007574871423E-5    3.5196735896636684E-5    5.504162096242745E-5     8.638543097438389E-5     1.36888321396093E-4      2.1930155353170396E-4
3.0E-10                  -2.895999727519399E-7    5.576063941132935E-6     1.0595536709810676E-5    2.456107102423247E-5     6.332113829334262E-5     1.639580413119452E-4     -2.895999727519399E-7    5.576063941132935E-6     1.0595536709810676E-5    2.456107102423247E-5     6.332113829334262E-5     1.639580413119452E-4     -2.895999730479398E-7    4.5777473545764075E-6    5.5760639407478275E-6    7.519265582219786E-6     1.0595536709785845E-5    1.5765865202335715E-5    2.4561071023503933E-5    3.936964183689144E-5     6.332113829379367E-5     1.0149083352797981E-4    1.6395804131177612E-4
3.0999999999999996E-10   -1.4516651900807978E-6   3.672077165573239E-6     7.267505486935455E-6     1.716576644842967E-5     4.611902158844832E-5     1.2300948195133614E-4    -1.4516651900807978E-6   3.672077165573239E-6     7.267505486935455E-6     1.716576644842967E-5     4.611902158844832E-5     1.2300948195133614E-4    -1.4516651901019567E-6   2.8779480999781186E-6    3.6720771651886686E-6    5.0563899266815164E-6    7.267505486882232E-6     1.0930629237719618E-5    1.7165766447739405E-5    2.79042749649689E-5      4.611902158885609E-5     7.54570383838127E-5      1.2300948195133815E-4
3.2E-10                  -2.2097639033620655E-6   2.349190208401422E-6     4.953151930051574E-6     1.2067552770614036E-5    3.3347125050882726E-5    9.275053043855058E-5     -2.2097639033620655E-6   2.349190208401422E-6     4.953151930051574E-6     1.2067552770614036E-5    3.3347125050882726E-5    9.275053043855058E-5     -2.209763903317965E-6    1.7504295598711558E-6    2.3491902080123514E-6    3.357897922697258E-6     4.953151929998101E-6     7.6020375275814675E-6    1.206755276996153E-5     1.976437382275403E-5     3.334712505113275E-5     5.603158725635899E-5     9.27505304386691E-5
3.3E-10                  -2.6779611383530517E-6   1.4237104386806096E-6    3.3397119209268027E-6    8.519094087031763E-6     2.4031835282590864E-5    7.015685120751891E-5     -2.6779611383530517E-6   1.4237104386806096E-6    3.3397119209268027E-6    8.519094087031763E-6     2.4031835282590864E-5    7.015685120751891E-5     -2.677961138571644E-6    1.0074277641275312E-6    1.4237104382927744E-6    2.1515563153615923E-6    3.3397119208545605E-6    5.255166240804767E-6     8.519094086417452E-6     1.4086218862730453E-5    2.4031835282690387E-5    4.1411603309952534E-5    7.015685120765392E-5
3.3999999999999996E-10   -2.9893127675850437E-6   8.357814097064149E-7     2.1828867350080592E-6    5.987283328863728E-6     1.7340681791253222E-5    5.282040686836913E-5     -2.9893127675850437E-6   8.357814097064149E-7     2.1828867350080592E-6    5.987283328863728E-6     1.7340681791253222E-5    5.282040686836913E-5     -2.9893127676837226E-6   5.136658524572003E-7     8.357814093230511E-7     1.343503287128788E-6     2.182886734940432E-6     3.603390673009321E-6     5.987283328262504E-6     1.0087621196347481E-5    1.7340681791254052E-5    3.0364483413240237E-5    5.282040686851234E-5
3.5E-10                  -3.191229759348905E-6    4.708634793084872E-7     1.3945591838613897E-6    4.187615380997721E-6     1.2570956475169988E-5    3.959300731373906E-5     -3.191229759348905E-6    4.708634793084872E-7     1.3945591838613897E-6    4.187615380997721E-6     1.2570956475169988E-5    3.959300731373906E-5     -3.191229759474774E-6    1.7899848049187616E-7    4.7086347892853423E-7    8.409805578094723E-7     1.3945591838353562E-6    2.4019850471264803E-6    4.187615380421602E-6     7.2233805612673484E-6    1.2570956475077551E-5    2.2237524311420158E-5    3.95930073138953E-5
3.6E-10                  -3.337243187852658E-6    2.52986305079263E-7      8.979639615509139E-7     2.8624901276845432E-6    9.15842866228101E-6      2.948541873521169E-5     -3.337243187852658E-6    2.52986305079263E-7      8.979639615509139E-7     2.8624901276845432E-6    9.15842866228101E-6      2.948541873521169E-5     -3.33724318805747E-6     -5.5878266072994975E-8   2.5298630469585517E-7    5.342455483408117E-7     8.979639615169159E-7     1.5624638254950861E-6    2.862490127105468E-6     5.1498190526228905E-6    9.158428662130703E-6     1.633597172021943E-5     2.9485418735374726E-5
3.6999999999999996E-10   -3.439301267535645E-6    9.938285220724264E-8     5.869860784975887E-7     1.9161779959081327E-6    6.655342064249956E-6     2.194915879362252E-5     -3.439301267535645E-6    9.938285220724264E-8     5.869860784975887E-7     1.9161779959081327E-6    6.655342064249956E-6     2.194915879362252E-5     -3.4393012677049405E-6   -2.1492054889530413E-7   9.938285181926189E-8     3.3389471407268626E-7    5.869860784581704E-7     1.0293526917334791E-6    1.9161779953110164E-6    3.6419335107466943E-6    6.655342064061995E-6     1.2048445877578737E-5    2.1949158793815753E-5
3.8E-10                  -3.5145390436259915E-6   -6.045283099288024E-9    3.832442020626279E-7     1.2933970360492685E-6    4.822394793063547E-6     1.6404047739051584E-5    -3.5145390436259915E-6   -6.045283099288024E-9    3.832442020626279E-7     1.2933970360492685E-6    4.822394793063547E-6     1.6404047739051584E-5    -3.5145390438205503E-6   -3.2238270072435606E-7   -6.0452834890270884E-9   2.0394786310076283E-7    3.8324420201079155E-7    6.870314474904673E-7     1.2933970354389925E-6    2.5192949577705763E-6    4.8223947928813E-6       8.921056908394926E-6     1.640404773926148E-5
3.9E-10                  -3.566214370298381E-6    -7.713215410917403E-8    2.446055523802589E-7     8.796392262804023E-7     3.451017298653836E-6     1.2300713956753046E-5    -3.566214370298381E-6    -7.713215410917403E-8    2.446055523802589E-7     8.796392262804023E-7     3.451017298653836E-6     1.2300713956753046E-5    -3.5662143705041964E-6   -3.885966281669464E-7    -7.71321544998632E-8     1.1532530471630287E-7    2.446055523001088E-7     4.63059655081306E-7      8.796392256634153E-7     1.7100214740924866E-6    3.4510172984051235E-6    6.587853229763079E-6     1.2300713956974911E-5
3.9999999999999996E-10   -3.599760651441573E-6    -1.2502002565740567E-7   1.477859412198375E-7     6.085344197600992E-7     2.426688989670158E-6     9.254443902414809E-6     -3.599760651441573E-6    -1.2502002565740567E-7   1.477859412198375E-7     6.085344197600992E-7     2.426688989670158E-6     9.254443902414809E-6     -3.5997606516283124E-6   -4.2769744114081105E-7   -1.2502002604855254E-7   5.0074276692637546E-8    1.4778594113644334E-7    3.1393303516551675E-7    6.085344191599545E-7     1.1759363121656632E-6    2.4266889894440805E-6    4.854005656525233E-6     9.254443902644718E-6
4.1E-10                  -3.6271335972347596E-6   -1.561284753216466E-7    7.661670407928607E-8     4.2347227084000183E-7    1.6888459474093335E-6    6.9449741537971725E-6    -3.6271335972347596E-6   -1.561284753216466E-7    7.661670407928607E-8     4.2347227084000183E-7    1.6888459474093335E-6    6.9449741537971725E-6    -3.627133597422378E-6    -4.5423798793699544E-7   -1.561284757129868E-7    -5.009688065709377E-10   7.66167039925575E-8      2.0488862447674703E-7    4.2347227025216006E-7    8.164627404822555E-7     1.6888459473046305E-6    3.5357804031050484E-6    6.944974154031044E-6
4.2E-10                  -3.6454196949994103E-6   -1.7594403784689155E-7   2.6889311646034497E-8    2.895530988747236E-7     1.1877054417079595E-6    5.198744436660817E-6     -3.6454196949994103E-6   -1.7594403784689155E-7   2.6889311646034497E-8    2.895530988747236E-7     1.1877054417079595E-6    5.198744436660817E-6     -3.645419695215741E-6    -4.7281533895837807E-7   -1.7594403823803255E-7   -3.912666965158334E-8    2.688931155692975E-8     1.251349534142097E-7     2.8955309830110217E-7    5.760662438588094E-7     1.1877054415844297E-6    2.538351454310984E-6     5.198744436893387E-6
4.2999999999999996E-10   -3.6558210280426725E-6   -1.873856625641734E-7    -7.371142848419523E-9    1.9272782854465178E-7    8.451996057218696E-7     3.863749091129869E-6     -3.6558210280426725E-6   -1.873856625641734E-7    -7.371142848419523E-9    1.9272782854465178E-7    8.451996057218696E-7     3.863749091129869E-6     -3.6558210282506487E-6   -4.853524504079837E-7    -1.8738566295505572E-7   -6.638470263895973E-8    -7.371142938691593E-9    6.858626832418468E-8     1.927278279922515E-7     4.0913741948047333E-7    8.451996056019268E-7     1.8030084410260106E-6    3.863749091371972E-6
4.4E-10                  -3.6642463117924844E-6   -1.9353273342835777E-7   -3.0836978488560835E-8   1.2246217765279342E-7    6.08174303981029E-7      2.828122691659317E-6     -3.6642463117924844E-6   -1.9353273342835777E-7   -3.0836978488560835E-8   1.2246217765279342E-7    6.08174303981029E-7      2.828122691659317E-6     -3.66424631202396E-6     -4.932675850018124E-7    -1.9353273381969607E-7   -8.743072775965949E-8    -3.083697857954471E-8    2.8831997832271438E-8    1.22462177099032E-7      2.8611047756994734E-7    6.081743038077086E-7     1.2943900894180667E-6    2.828122691894479E-6
4.5E-10                  -3.66744048378104E-6     -1.992779807138303E-7    -4.68937599674485E-8     7.164600613779503E-8     4.408830497119452E-7     2.042625574798809E-6     -3.66744048378104E-6     -1.992779807138303E-7    -4.68937599674485E-8     7.164600613779503E-8     4.408830497119452E-7     2.042625574798809E-6     -3.667440484050769E-6    -4.983751459364998E-7    -1.9927798110526783E-7   -1.0159511825755091E-7   -4.689376005906105E-8    1.1244625227717047E-9    7.164600558564384E-8     1.965956942224676E-7     4.4088304951148673E-7    9.365199202462488E-7     2.042625575027062E-6
4.5999999999999996E-10   -3.6670601967685727E-6   -2.0261725562624417E-7   -5.7885328507968296E-8   3.570312279305362E-8     3.1516893732452166E-7    1.489234542540171E-6     -3.6670601967685727E-6   -2.0261725562624417E-7   -5.7885328507968296E-8   3.570312279305362E-8     3.1516893732452166E-7    1.489234542540171E-6     -3.6670601970135732E-6   -5.014997851528019E-7    -2.0261725601735303E-7   -1.1069836111617305E-7   -5.788532860058132E-8    -1.8075653967926348E-8   3.570312224215443E-8     1.3016731267996607E-7    3.151689370899329E-7     6.859046557483796E-7     1.4892345427626371E-6