% Model:              Post reunió 7 - Tau nula - grafica k vs ell - parametrics no tan heavy.mph
% Version:            COMSOL 5.4.0.388
% Date:               Jul 28 2024, 11:27
% Table:              Table 1 - Point Evaluation KCM 2.2 (T_KCM)
% Time (s)               ell=8E-8, Temperature (K), Point: (7.5E-8, 5E-8)ell=8.2E-8, Temperature (K), Point: (7.5E-8, 5E-8)ell=8.4E-8, Temperature (K), Point: (7.5E-8, 5E-8)ell=8.6E-8, Temperature (K), Point: (7.5E-8, 5E-8)ell=8.8E-8, Temperature (K), Point: (7.5E-8, 5E-8)ell=9E-8, Temperature (K), Point: (7.5E-8, 5E-8)ell=9.2E-8, Temperature (K), Point: (7.5E-8, 5E-8)ell=9.4E-8, Temperature (K), Point: (7.5E-8, 5E-8)ell=9.6E-8, Temperature (K), Point: (7.5E-8, 5E-8)ell=9.8E-8, Temperature (K), Point: (7.5E-8, 5E-8)ell=1E-7, Temperature (K), Point: (7.5E-8, 5E-8)
0                        0.999135635300627        0.9991394132346532       0.9991429595334997       0.9991462920492549       0.999149427019209        0.9991523792290922       0.9991551621586654       0.9991577881115987       0.9991602683313751       0.9991626131047738       0.9991648318543285
1.0E-11                  0.9573298987202724       0.9590709283271407       0.9607109628270991       0.9622572329614557       0.9637163776551676       0.9650944958032631       0.966397193643847        0.9676296279996117       0.9687965456825067       0.9699023193572107       0.9709509801521823
2.0E-11                  0.9172734892468974       0.9206093931837689       0.9237573245129512       0.9267302034366302       0.92953995456282         0.9321975856620321       0.9347132610594402       0.9370963697282635       0.9393555882469394       0.9414989388466029       0.9435338428146944
3.0E-11                  0.8783709943052457       0.8832092339994285       0.887781321806945        0.8921049167739317       0.8961963916781504       0.9000709243288098       0.9037425844712605       0.9072244158882534       0.9105285135033298       0.9136660954483373       0.9166475701686709
4.0E-11                  0.8408689117765371       0.8470983921026642       0.8529939615953583       0.8585769112535531       0.8638670839933511       0.8688829625234735       0.8736417558348428       0.878159483165377        0.882451054660866        0.8865303482284892       0.8904102822881419
4.9999999999999995E-11   0.804921154645384        0.8124205359225704       0.8195293978890266       0.8262715099210596       0.8326691611617725       0.838743229676537        0.8445132550431866       0.8499975123092118       0.8552130857690288       0.8601759414257095       0.8649009973235835
6.0E-11                  0.7705109110851713       0.7791628725762171       0.7873781708434197       0.7951820133036982       0.8025982055740017       0.8096491899296521       0.8163560932345051       0.8227387812573428       0.8288159169654966       0.8346050209335469       0.8401225324433037
6.999999999999999E-11    0.7375808921793862       0.7472751220025519       0.7564960761512536       0.7652694937246173       0.773619880544595        0.781570508236357        0.7891434294844547       0.7963595053655603       0.8032384414702212       0.8097988301948126       0.8160581971316452
8.0E-11                  0.7060640336327748       0.7166977495098319       0.7268301638329236       0.7364867702775618       0.7456920689668582       0.7544695203873845       0.7628415223956903       0.7708294052789466       0.7784534407480337       0.7857328615091723       0.7926858886991122
9.0E-11                  0.6758959439667198       0.6873734529768657       0.6983293504811905       0.7087882237387862       0.7187739609384339       0.7283096565827286       0.7374175467286515       0.7461189682389522       0.7544343371783411       0.7623831423262971       0.7699839504875494
9.999999999999999E-11    0.64701712733425         0.6592492414379939       0.6709463623138996       0.6821316126907048       0.6928277513169088       0.7030570284420694       0.7128410774928271       0.7222008364529099       0.73115649345898         0.7397274519994934       0.7479323118581471
1.1E-10                  0.6193720405604927       0.6322755902309155       0.6446369755984516       0.6564773883927828       0.6678180198509426       0.6786798665677892       0.6890835782402438       0.6990493403563368       0.7085967858629892       0.7177449307252142       0.7265121290620412
1.2E-10                  0.5929080203173611       0.6064054685952994       0.6193591327285395       0.6317878891201073       0.643710995001387        0.6551478462694873       0.6661177821216135       0.6766399292787226       0.6867330795122666       0.6964155950360338       0.7057053370884754
1.3E-10                  0.5675747167447954       0.5815938292706339       0.5950724806308829       0.6080269213318965       0.6204741727426106       0.6324317396253455       0.643917373460935        0.6549488793053888       0.6655439597362434       0.6757200902316949       0.6854944210528714
1.3999999999999998E-10   0.5433238780987741       0.5577974195900168       0.5717382041718615       0.5851596120077167       0.5980761850455361       0.6105032978120097       0.6224568820219907       0.6339531978862969       0.6450086456858294       0.6556396118712304       0.6658623446127142
1.5E-10                  0.5201092686549806       0.5349747146850568       0.5493189716928604       0.5631523641431431       0.5764867634381722       0.5893352212105881       0.6017116584389091       0.6136306036077604       0.6251069736523156       0.636155891996496        0.6467925385745014
1.6E-10                  0.49788660901102777      0.5130858710037054       0.5277788990489188       0.5419728291661206       0.5556767180929003       0.5689011438036452       0.581657862835826        0.5939595181656673       0.6058193916984853       0.6172511958638656       0.6282688992791982
1.6999999999999998E-10   0.4766132684476726       0.49209246542200813      0.50708332792952         0.5215897182083088       0.5356177768450479       0.5491754956067143       0.5622723470539476       0.5749189653630552       0.5871268728920316       0.5989082472854214       0.6102757242609851
1.8E-10                  0.4562487515353044       0.47195791689806954      0.48719919171709064      0.5019731199911734       0.5162828617910213       0.5301337436921931       0.5435328649878776       0.5564887549411965       0.5690110762139035       0.5811103696862037       0.5927978360897601
1.9E-10                  0.436754320421918        0.4526471647539664       0.468094740880329        0.483094265936323        0.49764588794961284      0.5117522192507187       0.5254179237362437       0.5386493542048866       0.551454235621603        0.5638413900494009       0.5758204990423824
1.9999999999999998E-10   0.4180928826470551       0.43412657474171357      0.4497394641246154       0.4649254638103562       0.47968170727963033      0.4940080702402223       0.507906743450035        0.5213818538897648       0.5344391309606563       0.5470856140650775       0.5593293978192788
2.1E-10                  0.4002288650189414       0.4163638324582353       0.4321039981131427       0.44744002108200853      0.46236604346351745      0.47687920576458087      0.4909792097855753       0.5046679274245743       0.5179490529817887       0.5308277960217497       0.5433106115736159
2.2E-10                  0.38312818477122534      0.3993279202912058       0.41516010905253936      0.4306122302267237       0.4456754801930165       0.4603442867490109       0.4746158664955492       0.4884898250575862       0.5019677986976852       0.5150531351486268       0.5277506110424235
2.2999999999999998E-10   0.36675820897007727      0.3829890841453521       0.39888066538926287      0.41441734629737415      0.4295874427237524       0.4443827107543556       0.4587979029135745       0.4728303635312538       0.48647966285606986      0.4997472685673179       0.5126362527154867
2.4E-10                  0.35108771373767994      0.3673187997348568       0.38323960990629513      0.3988315637923456       0.4140801786705052       0.42897459600902         0.4435071406574173       0.4576729149932687       0.4714694286782778       0.4848962635453915       0.49795477234673285
2.4999999999999996E-10   0.3360868095291034       0.35228971034496204      0.3682119077998629       0.38383197326544344      0.39913272168582725      0.41410075095167964      0.42872600804390704      0.4430013854660224       0.45692234970835893      0.47048660216728966      0.4836937719852131
2.6E-10                  0.32172688607190036      0.33787558048291844      0.3537735075994967       0.3693965283187794       0.3847248635329989       0.3997426505598801       0.41443751998793177      0.428800197745828        0.4428241352375481       0.4565051688878576       0.4698412093267592
2.7E-10                  0.3079805495565824       0.32405124307971606      0.3399012967193944       0.35550400812477256      0.37083712243399336      0.3858824095733496       0.40062525531111504      0.41505427213991486      0.42916093392254984      0.44293923657596473      0.45638538580243715
2.7999999999999996E-10   0.2948215789576347       0.31079256262054156      0.32657307029691623      0.34213399105269104      0.3574507207157971       0.37250276351849587      0.38727334060851304      0.4017490127273337       0.4159193220659425       0.42977645650072965      0.44331493800773697
2.9E-10                  0.2822248731261931       0.2980763906903966       0.3137674937962102       0.32926682316927186      0.34454755824194433      0.35958704626694193      0.3743664312649821       0.3888702912758875       0.4030862899692695       0.41700484673343075      0.43061882782993466
3.0E-10                  0.27016640723673574      0.2858805292215593       0.3014640719610671       0.3168835919802081       0.332110190175769        0.3471191711791974       0.36188969544287064      0.3764044336250737       0.39064923033559124      0.40461278225504343      0.41828633399687165
3.0999999999999996E-10   0.258623181942246        0.2741836875862901       0.2896431125687583       0.3049660957761887       0.32012180102401133      0.3350836090972884       0.3498287953973518       0.3643382037999554       0.3785959247430312       0.39258898342178267      0.40630704222622394
3.2E-10                  0.2475731815789005       0.26296544712025866      0.2782856962914003       0.29349681800407645      0.3085661828193771       0.3234653697500704       0.33816987160861506      0.35265879045253207      0.3669145320434297       0.38092250602448907      0.3946708366955867
3.3E-10                  0.23699532947235177      0.2522062231997979       0.26737364449380224      0.2824588998978835       0.2974277118357667       0.312249981921331        0.326899525870791        0.34135379242323405      0.3555935760187612       0.3696027307217141       0.3833678909839054
3.3999999999999996E-10   0.22686945048619836      0.24188723333465562      0.2568894920343821       0.271836117276551        0.2866913287788884       0.301423476520975        0.3160048068096802       0.3304112063376692       0.344621934745762        0.3586193539088573       0.3723886602221466
3.5E-10                  0.21717623102280378      0.23199046312551155      0.24681645827674903      0.26161285584234295      0.2763425177204336       0.29097236860329323      0.3054731945180335       0.31981941346370374      0.3339888293405134       0.34796237806748187      0.3617238728081307
3.6E-10                  0.20789718379148847      0.22249863616699284      0.23713842136960606      0.2517740891893731       0.2663672872820031       0.28088364125498316      0.29529258674666287      0.30956716786477223      0.3236838137843352       0.3376221030178207       0.35136452287675185
3.6999999999999996E-10   0.1990146109552367       0.21339518256159942      0.22783989133739482      0.2423053557943981       0.25675215094831527      0.27114472873830536      0.2854512844583293       0.2996435840079779       0.3136967642830899       0.3275891167718424       0.3413018624281097
3.8E-10                  0.19051157137398247      0.2046642108232294       0.21890598597784733      0.2331927383341084       0.2474841093106347       0.261743501237379        0.2759379787145859       0.2900381254817598       0.3040178695511705       0.3178542871578309       0.33152739410010973
3.9E-10                  0.1823718473058578       0.1962904793049733       0.21032240634361693      0.22442284264000517      0.238550631995317        0.2526682493315575       0.26674173732657414      0.2807405935097813       0.29463762091985174      0.3084087532937901       0.3220328638111079
3.9999999999999996E-10   0.17457991439284676      0.18825937035877788      0.20207541449794433      0.21598277854790435      0.2299396411724667       0.24390766978807177      0.2578519926085993       0.27174111638777243      0.28554680321908277      0.2992439177098598       0.31281025394788115
4.1E-10                  0.16712091139686033      0.18055686427085094      0.1941518110701757       0.2078601405698624       0.2216394949078484       0.2354508512169292       0.24925852901113854      0.2630301388152136       0.2767364855678531       0.2903514383914624       0.30385177648505596
4.2E-10                  0.15998061244578526      0.17316951528501773      0.1865389145490538       0.20004299001337758      0.21363897172108018      0.2272872607321268       0.24095147159416508      0.2545984119294493       0.2681980127523695       0.28172322131491756      0.2951498665176053
4.2999999999999996E-10   0.15314539934807153      0.1660844276671642       0.17922454059701864      0.1925198371072107       0.20592725514039872      0.21940673060266502      0.2329212744859479       0.24643698332276182      0.25992299658598605      0.27335141296452004      0.2866971757751691
4.4E-10                  0.14660223602235245      0.15928923353151         0.17219698283265528      0.1852796243512665       0.19849391927865456      0.21179944575623563      0.22515871005441243      0.23853718765547932      0.251903307768206        0.2652283932679523       0.2784865664874164
4.5E-10                  0.14033864326448117      0.15277207093845113      0.16544499383153916      0.1783117100420317       0.1913289145504084       0.20445593139633375      0.2176548581697193       0.23089063734250273      0.24413106780283708      0.25734676857942124      0.27051110528798106
4.5999999999999996E-10   0.13434267526795052      0.14652156345791298      0.15895776735221234      0.17160585282257718      0.18442255424631626      0.1973670413371771       0.21040109606833712      0.2234892137443055       0.23659864133965997      0.24969936501871165      0.2627640574178297
4.699999999999999E-10    0.12860289658069593      0.14052680009143484      0.1527249208569495       0.1651521964747966       0.17776550130662364      0.19052394650237733      0.20338908835190037      0.21632505846899508      0.22929862860772807      0.24227922188595186      0.2552388809913002
4.8E-10                  0.12310836051306732      0.13477731640963536      0.1467364790503822       0.1589412555642224       0.1713487558090385       0.18391812402248978      0.19661077748843353      0.20939056509609316      0.22222385820298202      0.23507958537433604      0.24792922151294317
4.9E-10                  0.11784858805936867      0.12926307611570656      0.14098285777136554      0.15296390137768318      0.16516364269939898      0.1775413465339355       0.1900583744806901       0.2026783710391082       0.2153673799912427       0.22809390237887012      0.2408289064743841
4.999999999999999E-10    0.11281354806558883      0.12397445365524357      0.135454848763165        0.14721134859823665      0.15920180014133337      0.1713856719977908       0.18372434997132164      0.19618134977539373      0.20872245832024403      0.2213158145653581       0.23393194017052565
5.1E-10                  0.10799363795789155      0.11890221729497044      0.1301436048354923       0.14167514230746617      0.15345516813940718      0.1654434337471084       0.17760142553909863      0.18989260323582713      0.20228256536546538      0.2147391525515145       0.22723249860982025
5.2E-10                  0.10337966554343103      0.11403751310477234      0.1250406257871143       0.13634714562803635      0.14791597770124834      0.15970723098803924      0.17168256537735307      0.18380545451657795      0.19604137474755218      0.20835793031724423      0.22072492461806761
5.299999999999999E-10    0.09896283137850333      0.10937184941689508      0.1201377447294611       0.13121952770306486      0.14257674028251477      0.1541699195384813       0.16596096817193814      0.17791344075854335      0.18999275529072246      0.20216633973356465      0.21440372304214617
5.4E-10                  0.09473471206617877      0.10489708207051712      0.11542711507337694      0.1262847522351925       0.13743023770415969      0.14882460296527678      0.1604300593155704       0.1722103063107923       0.18413076502107817      0.196158745294301        0.20826355612524772
5.5E-10                  0.09068724411632895      0.10060540013150618      0.1109011979169562       0.12153556636395124      0.13246951235491888      0.14366462396184476      0.1550834833248627       0.16668999606492785      0.17844964530910634      0.1903296789694922       0.20229923898492988
5.599999999999999E-10    0.0868127086237089       0.09648931230565232      0.10655275002070369      0.11696499004024269      0.12768785781438985      0.1386835560816065       0.14991509655834812      0.16134664904412954      0.1729438152277506       0.18467383524135284      0.1965057352458502
5.7E-10                  0.08310371649307913      0.09254163381619064      0.10237481217626539      0.11256630573413215      0.12307880975822706      0.13387519571011272      0.1449189601364471       0.15617459216306004      0.1676078660550921       0.17918606626267616      0.1908781527762382
5.8E-10                  0.07955319438801477      0.08875547389698125      0.09836069809830261      0.10833304858680091      0.11863613724021621      0.12923355435685138      0.1400893331325655       0.1511683342177375       0.16243655597212242      0.17386137718080386      0.18541173956494084
5.899999999999999E-10    0.07615437120196915      0.0851242237308101       0.0945039836951899       0.10425899688453732      0.1143538342478955       0.12475285117929158      0.13542066596129873      0.14632255907792427      0.15742480490250027      0.1686949215821451       0.18010187970086616
6.0E-10                  0.07290076517343524      0.08164154493758541      0.09079849680852836      0.10033816141630966      0.11022611159794363      0.12042750579591056      0.13090759401235483      0.14163212230244215      0.15256768870256013      0.16368199708776154      0.17494408948094484
6.1E-10                  0.06978617149548891      0.07830135848556176      0.08723830731402096      0.09656478020923308      0.10624738909429932      0.11625213132297801      0.12654493045474194      0.13709204447237924      0.14786043624656456      0.1588180403578212       0.1699340136180817
6.199999999999999E-10    0.06680465050257096      0.07509783409717045      0.08381771764545955      0.09293330816012174      0.1024122879948174       0.11222152656255856      0.12232766266668212      0.13269750576565884      0.14329842371357357      0.15409862459288093      0.16506742156751888
6.3E-10                  0.06395051632180995      0.07202538005389804      0.08053125366084679      0.08943840865811473      0.09871562372836594      0.10833067211734783      0.11825094519969132      0.1284438406170202       0.13887716992617657      0.14951945462386734      0.16034020335853277
6.4E-10                  0.061218326043655645     0.0690786334477972       0.07737365589192584      0.0860749453959722       0.09515239773190522      0.10457472275125468      0.11431009406283116      0.12432653291838061      0.13459233175829843      0.1450763629022444       0.15574836750334975
6.499999999999999E-10    0.058602869326188474     0.06625245080696558      0.07433987111550454      0.08283797506622842      0.09171779340528409      0.10094900119127034      0.11050058110539693      0.12034121131696228      0.1304396999997098       0.14076530554295158      0.15128803689296544
6.6E-10                  0.056099158468315154     0.06354189763870322      0.07142504427347948      0.07972274024510792      0.08840716814597128      0.09744899204779942      0.10681802897702099      0.11648366371453542      0.12641519530027953      0.13658235875585945      0.14695544543991435
6.7E-10                  0.053702417312485436     0.06094224330316115      0.06862450940841555      0.07672468684979666      0.08521604690036678      0.09407033636931379      0.10325820619655623      0.11274978651039237      0.12251486483296396      0.1325237153419948       0.14274693476128414
6.799999999999999E-10    0.0514080758460206       0.0584489508794338       0.06593378521861967      0.07383939809549996      0.08214011584859945      0.09080882632176625      0.09981702310404303      0.10913560685623909      0.11873487635506622      0.1285856818078396       0.13865895118279714
6.9E-10                  0.049211759488589205     0.0560576690191075       0.06334856626411088      0.07106262232643054      0.0791752167598341       0.08766041987995374      0.09649052466677666      0.10563728365104957      0.11507151660205531      0.12476467322622337      0.13468804279421182
7.0E-10                  0.047109280507597176     0.05376422401302346      0.06086471588269857      0.0683902734491958       0.07631734148452204      0.08462118750704044      0.09327488855418425      0.10225110188666103      0.11152118696957215      0.12105721183966595      0.13083085702178354
7.099999999999999E-10    0.04509662967388348      0.051564612749445286     0.05847825927601233      0.06581842285510492      0.0735626274441007       0.08168733509932445      0.09016641993295607      0.0989734512943294       0.10808040003332556      0.11745992331527784      0.12708413630238496
7.2E-10                  0.04316996887549099      0.04945499587522694      0.056185377358055816     0.0633432719216869       0.07090734962868818      0.07885520469853731      0.08716154728625813      0.09580085775296107      0.10474577588818046      0.11396953372171936      0.12344471690246771
7.3E-10                  0.041325623956792526     0.047431712566589866     0.05398240077097141      0.06096119031583491      0.06834791848113157      0.07612126827225062      0.08425681802487228      0.09272995979379653      0.10151403886584828      0.11058286634606247      0.11990952575881167
7.399999999999999E-10    0.03956009917360091      0.04549122189922103      0.05186582367704986      0.05866868583067621      0.06588087413928018      0.07348210538936682      0.08144889456589535      0.08975750289037435      0.09838201433770925      0.10729683883529331      0.11647557792464693
7.5E-10                  0.03787001824868816      0.043630126983320895     0.04983225036256332      0.05646239650667165      0.06350288182854859      0.07093443522304618      0.07873455052321167      0.08688033259780707      0.09534663897333431      0.10410846040858134      0.11313997387809627
7.6E-10                  0.03625214832844546      0.04184517491455661      0.04787841748481343      0.054339081502928856     0.061210727036457024     0.06847509202106214      0.07611068168783497      0.0840953937797551       0.09240492542577589      0.10101484127185985      0.10989989710147613
7.699999999999999E-10    0.03470339970122598      0.0401332492449295       0.046001194229223004     0.05229561959258598      0.05900131121811152      0.0661010189287462       0.07357426693229221      0.08139972886868886      0.0895539779626032       0.09801316070007286      0.10675261171782202
7.8E-10                  0.033220818037512895     0.03849134572726024      0.04419757561846619      0.05032900648627772      0.05687164763645943      0.06380926069836608      0.07112238521204425      0.07879047593084511      0.0867909932614857       0.09510068128039785      0.1036954708794736
7.9E-10                  0.031801560091951425     0.03691660502966228      0.04246466034835509      0.04843635199320946      0.054818872054704426     0.061596962678840884     0.06875221621220033      0.07626486493069087      0.08411325656039338      0.09227474972094837      0.10072588873412805
7.999999999999999E-10    0.03044292590345942      0.03540628618547542      0.04079968118151507      0.04661487471946969      0.05284020316790133      0.05946136882274453      0.06646103588783375      0.0738202147515406       0.08151812676037078      0.0895327934474003       0.09784135303222341
8.1E-10                  0.029142332231337807     0.03395775939253623      0.03919998065972472      0.04486189801768642      0.05093295947447442      0.057399819524146474     0.06424620004444884      0.07145392988653822      0.07900305859772767      0.08687230711190723      0.09503942591273115
8.2E-10                  0.027897305211693594     0.032568497829110685     0.037663004640177654     0.04317484544496956      0.04909455967285611      0.05540974751517958      0.0621051681877448       0.069163498081707        0.07656558624333898      0.084290872899452        0.09231774097820131
8.299999999999999E-10    0.026705472093244684     0.031236076088512293     0.03618629487738192      0.041551237570086684     0.04732251793162622      0.0534886746632945       0.060035485469739136     0.06694648758373518      0.07420331938547604      0.08178614566716558      0.08967399142320048
8.4E-10                  0.025564559547121578     0.029958167618087027     0.034767487702521485     0.03998868816872754      0.04561442735563012      0.05163420839596703      0.05803477822327113      0.06480054479228828      0.07191393848216641      0.07935584945501478      0.08710594809466875
8.5E-10                  0.024472391000054654     0.028732542057989686     0.03340431177513686      0.038484901031014124     0.04396798335794854      0.04984403917007041      0.05610074864377383      0.06272339152453067      0.06969519428700148      0.07699777322051751      0.0846114464087739
8.599999999999999E-10    0.023426883889641696     0.027557060346732637     0.03209458572329167      0.03703766623886356      0.042380965508356204     0.04811593748610917      0.054231174121512814     0.06071282267463725      0.06754490669193394      0.07470977046670987      0.08218838333004992
8.7E-10                  0.022426044653332373     0.02642967106051707      0.03083621377055789      0.035644857046447806     0.040851232878748034     0.04644775136192023      0.05242390584047013      0.05876670373196985      0.06546096342269572      0.07248975824421916      0.07983471364768466
8.8E-10                  0.021467965020009885     0.02534840629212664      0.02962718243048184      0.03430442656154614      0.03937671859954027      0.04483740338771797      0.05067686723971408      0.056882968646483636     0.0634413174978184       0.07033571601013197      0.07754844969733996
8.899999999999999E-10    0.020550817828109084     0.024311378775943845     0.028465556792209423     0.03301440492900158      0.03795542903415709      0.043282888231883115     0.04898805106869052      0.05505961757049796      0.06148398517973288      0.06824568338488166      0.07532766052608728
9.0E-10                  0.019672854120193387     0.02331677842905512      0.027349477919129606     0.03177289633660741      0.036585442236957325     0.04178226999144995      0.047355517063931346     0.05329471481813042      0.05958704370542229      0.06621775832351881      0.07317047092304885
9.1E-10                  0.018832399631175552     0.022362869473890518     0.026277159733962375     0.0305780763434692       0.035264906299474416     0.04033367992780228      0.04577738936196195      0.05158638673325571      0.05774862966522586      0.0642500950960086       0.07107505949582016
9.199999999999999E-10    0.01802785187993358      0.02144798708268673      0.02524688641623381      0.029428189087643435     0.03399203623737051      0.038935314065253024     0.04425185466223075      0.04993281974600885      0.05596693711983296      0.062340902840278045     0.06903965708476234
9.3E-10                  0.01725767677766723      0.02057053459686654      0.02425700936733718      0.028321544773290297     0.032765111586610836     0.037585431034246206     0.042777160070719716     0.048332258397204515     0.05424021598760108      0.060488443890699975     0.06706254501689611
9.399999999999999E-10    0.016520405833759452     0.019728980565581585     0.02330594468126605      0.027256517117391934     0.031582473713732476     0.03628234981730484      0.04135161126791796      0.04678300351992942      0.05256677016603836      0.05869103234084694      0.0651420538515377
9.5E-10                  0.015814633178636364     0.01892185625133036      0.022392170452268774     0.026231541024472498     0.030442523918421987     0.03502444770696729      0.03997357037364346      0.04528341040457712      0.05094495591655582      0.05694703236987719      0.06327656193926723
9.6E-10                  0.015139013066398033     0.01814775297245283      0.02151422449830185      0.025245110241584708     0.029343721183563785     0.033810158230221245     0.0386414541293513       0.04383188708305291      0.049373180153376744     0.05525485679644634      0.061464494177966546
9.7E-10                  0.014492257211312004     0.017405319748496392     0.020670701938244537     0.024295775186939643     0.028284580279384332     0.03263796924771721      0.03735373196890273      0.04242689261114473      0.04784989896738989      0.053612965548427705     0.05970432056480593