% Model:              Post reunió 7 - Tau nula - grafica k vs ell - parametrics no tan heavy.mph
% Version:            COMSOL 5.4.0.388
% Date:               Jul 28 2024, 11:27
% Table:              Table 1 - Point Evaluation KCM 2.1 (T_KCM)
% Time (s)               ell=1.1E-8, Temperature (K), Point: (7.5E-8, 5E-8)ell=1.2E-8, Temperature (K), Point: (7.5E-8, 5E-8)ell=1.3E-8, Temperature (K), Point: (7.5E-8, 5E-8)ell=1.4E-8, Temperature (K), Point: (7.5E-8, 5E-8)ell=1.5E-8, Temperature (K), Point: (7.5E-8, 5E-8)ell=1.6E-8, Temperature (K), Point: (7.5E-8, 5E-8)ell=1.7E-8, Temperature (K), Point: (7.5E-8, 5E-8)ell=1.8E-8, Temperature (K), Point: (7.5E-8, 5E-8)ell=1.9E-8, Temperature (K), Point: (7.5E-8, 5E-8)ell=2E-8, Temperature (K), Point: (7.5E-8, 5E-8)ell=2.1E-8, Temperature (K), Point: (7.5E-8, 5E-8)ell=2.2E-8, Temperature (K), Point: (7.5E-8, 5E-8)ell=2.3E-8, Temperature (K), Point: (7.5E-8, 5E-8)ell=2.4E-8, Temperature (K), Point: (7.5E-8, 5E-8)ell=2.5E-8, Temperature (K), Point: (7.5E-8, 5E-8)ell=2.6E-8, Temperature (K), Point: (7.5E-8, 5E-8)ell=2.7E-8, Temperature (K), Point: (7.5E-8, 5E-8)ell=2.8E-8, Temperature (K), Point: (7.5E-8, 5E-8)ell=2.9E-8, Temperature (K), Point: (7.5E-8, 5E-8)ell=3E-8, Temperature (K), Point: (7.5E-8, 5E-8)ell=3.1E-8, Temperature (K), Point: (7.5E-8, 5E-8)ell=3.2E-8, Temperature (K), Point: (7.5E-8, 5E-8)ell=3.3E-8, Temperature (K), Point: (7.5E-8, 5E-8)ell=3.4E-8, Temperature (K), Point: (7.5E-8, 5E-8)ell=3.5E-8, Temperature (K), Point: (7.5E-8, 5E-8)ell=3.6E-8, Temperature (K), Point: (7.5E-8, 5E-8)ell=3.7E-8, Temperature (K), Point: (7.5E-8, 5E-8)ell=3.8E-8, Temperature (K), Point: (7.5E-8, 5E-8)ell=3.9E-8, Temperature (K), Point: (7.5E-8, 5E-8)ell=4E-8, Temperature (K), Point: (7.5E-8, 5E-8)ell=4.1E-8, Temperature (K), Point: (7.5E-8, 5E-8)ell=4.2E-8, Temperature (K), Point: (7.5E-8, 5E-8)ell=4.3E-8, Temperature (K), Point: (7.5E-8, 5E-8)ell=4.4E-8, Temperature (K), Point: (7.5E-8, 5E-8)ell=4.5E-8, Temperature (K), Point: (7.5E-8, 5E-8)ell=4.6E-8, Temperature (K), Point: (7.5E-8, 5E-8)ell=4.7E-8, Temperature (K), Point: (7.5E-8, 5E-8)ell=4.8E-8, Temperature (K), Point: (7.5E-8, 5E-8)ell=4.9E-8, Temperature (K), Point: (7.5E-8, 5E-8)ell=5E-8, Temperature (K), Point: (7.5E-8, 5E-8)ell=5.1E-8, Temperature (K), Point: (7.5E-8, 5E-8)ell=5.2E-8, Temperature (K), Point: (7.5E-8, 5E-8)ell=5.3E-8, Temperature (K), Point: (7.5E-8, 5E-8)ell=5.4E-8, Temperature (K), Point: (7.5E-8, 5E-8)ell=5.5E-8, Temperature (K), Point: (7.5E-8, 5E-8)ell=6.9E-8, Temperature (K), Point: (7.5E-8, 5E-8)ell=7E-8, Temperature (K), Point: (7.5E-8, 5E-8)
0                        0.9990806341550003       0.9990843202442863       0.9990880998058334       0.9990919456491136       0.9990958314400742       0.9990997325296359       0.9991036264378343       0.9991074931074033       0.9991113149975348       0.9991150770656105       0.9991187666713142       0.9991223734288521       0.9991258890268714       0.999129307030987        0.9991326226801285       0.9991358326849429       0.9991389350340787       0.9991419288122683       0.999144814032614        0.9991475914843233       0.9991502625962834       0.9991528293162226       0.9991552940047903       0.9991576593435912       0.9991599282560532       0.9991621038399252       0.9991641893101976       0.9991661879512523       0.9991681030771298       0.9991699379988637       0.9991716959979353       0.9991733803049825       0.9991749940829968       0.9991765404143299       0.9991780222909108       0.9991794426071551       0.999180804155114        0.9991821096214787       0.9991833615860999       0.9991845625217481       0.999185714794865        0.9991868206671091       0.9991878822975176       0.9991889017451469       0.9991898809720674       0.999200264348622        0.9992008202918757
1.0E-11                  0.6990375219818539       0.7055160909154558       0.7122541713519485       0.7191981364498995       0.726296931651532        0.7335026537527665       0.7407709704407233       0.7480613982477136       0.7553374540773092       0.7625666959642642       0.769720669795416        0.776774779301098        0.7836596391342582       0.7903988483626188       0.796995995255857        0.8034388634004075       0.8097178333677161       0.8158256173528258       0.8217569990248185       0.8275085837049531       0.8330785625550053       0.8384664932175527       0.8436730983267642       0.848700082482788        0.8535499676413311       0.8582259464023575       0.8627317523302325       0.8670715462302447       0.8712498171535088       0.8752712968556497       0.8791408864170155       0.882862829531336        0.8864391313871439       0.8898794866347876       0.8931888562158857       0.8963721518502166       0.8994342109153484       0.9023797762719556       0.9052134803419365       0.9079398328206485       0.9105632114908158       0.913087855654693        0.9155178617756653       0.9178571809634053       0.9201096179946843       0.9443028004356409       0.9456132130057812
2.0E-11                  0.48675500419931356      0.49574032648761346      0.5052130716850085       0.5151081968229771       0.5253596573256212       0.5359017568443727       0.5466703200621077       0.5576036791030194       0.5686434706834997       0.5797352470738897       0.5908289097753641       0.6018789799579002       0.6126863943018153       0.6233493687550143       0.6338950989304918       0.6442941452414066       0.654521236363003        0.6645550414220243       0.6743779024245911       0.6839755418688831       0.693336758071617        0.7024531183343521       0.7113186578315318       0.7199295901278341       0.7282840335017624       0.7363817558377851       0.7442239396557956       0.751812967966025        0.759152230885392        0.7662459524727228       0.7730990368522839       0.779707232205846        0.786037610000512        0.792155042273806        0.7980648926396325       0.8037727789481912       0.8092844994860959       0.8146059696215119       0.8197431677714382       0.8247020896381845       0.8294887097455195       0.8341089493862109       0.8385686501782231       0.842873552501984        0.847029278173425        0.8923294103703256       0.8948176226332993
3.0E-11                  0.3384217385938665       0.3480507915404258       0.3582679113919748       0.3688211199236064       0.3797299811804835       0.3911135123844944       0.4029043935321067       0.4150340049599766       0.42743397365839425      0.4400375220633853       0.4527805900973464       0.46560272142986103      0.47816683187436737      0.49068497288505064      0.5032159691663305       0.5157112147728491       0.5281270419662994       0.5404247326470746       0.5525704135553321       0.5645348628769573       0.5762932527603143       0.58782484872738         0.5991126833838122       0.6100380193181445       0.6206112912304894       0.6309451122482089       0.6410305137314642       0.6508609721408807       0.6604321188451829       0.6697414695761174       0.6787881749603323       0.6875727926426315       0.6960970808207897       0.7043638125421802       0.7123766097761636       0.7201397960431112       0.7276582662591582       0.7349373724049276       0.7419828236165653       0.7488005993051251       0.7553968740220622       0.7617779528005686       0.7679502158433489       0.7739200714705378       0.7796847499529815       0.8430728579167026       0.8466112154001413
4.0E-11                  0.2357995692019887       0.24455543386002787      0.2539476083833697       0.2639400828940954       0.27449242469068175      0.2854823935431231       0.2968744871360723       0.30876667261243745      0.321088177627424        0.33376684227058134      0.34673087716954143      0.3599103499309638       0.3729341467553253       0.3860539783032085       0.3993274211962281       0.41269056005675897      0.42608466012961566      0.43945644801997114      0.4527582040022134       0.46594770453925494      0.4786952748802469       0.491259141635394        0.5037048458397662       0.5160000927467364       0.5281173218399378       0.5400333301175678       0.5517288872864885       0.5631883539691521       0.5743993113023933       0.585352207713815        0.5960400267980839       0.6064262508583403       0.6163811145695512       0.6260953737487691       0.6355658333365668       0.6447908587805089       0.6537701604323266       0.6625046000567802       0.6709960180578409       0.6792470799142585       0.6872611402255964       0.6950421228594303       0.7025944156824026       0.7099227784546245       0.7170322625443302       0.7965083774165547       0.8009636596854509
4.9999999999999995E-11   0.16541543097433922      0.17300895455760884      0.18124314258687033      0.19004217921859504      0.1993913624628939       0.20927258976869811      0.21966168860961205      0.23051964259475508      0.24183972551750124      0.25358330929572         0.26570805784732787      0.2781687663331397       0.29076297224866277      0.30364541847648113      0.31681016172960136      0.33018231137409154      0.3436920600772004       0.3572752114374688       0.3706367655755818       0.3838772549143452       0.39716616776159674      0.41044873410893323      0.4236764900259312       0.4368069792556096       0.4498033900569594       0.46263415198877855      0.4750834697165369       0.48719444557517083      0.49915914450737947      0.5109530630586159       0.5225557411853939       0.5339503422904457       0.5451232585124921       0.5560637435784187       0.5667635744171444       0.5772167415055146       0.5874191673979742       0.5973684523089187       0.6070201478318074       0.6162850582327453       0.6253266239358568       0.6341441466888524       0.6427379629261571       0.6511092919296523       0.6592601013503712       0.752304551596092        0.7576273342674611
6.0E-11                  0.11660591238736663      0.12296136232179733      0.12994564515978388      0.137473120398942        0.1455236004325417       0.1540963381190983       0.1631852235643062       0.17280215589170014      0.1829421491940521       0.19349722089756943      0.20445538966466836      0.21579833858401165      0.227487133037941        0.23951352676486337      0.2518470864167168       0.26444730459766747      0.27727198098187755      0.2901315906495189       0.3031626075096472       0.31638382569399226      0.32972531622807183      0.3431241483244942       0.35652423136605965      0.36966939055771786      0.38260457437822976      0.3955387058073568       0.4084251215780462       0.4212232929582839       0.4338983203483856       0.4464204305079184       0.4587644873014328       0.47085189834574714      0.48244925529337135      0.49389958570704334      0.5051827295729561       0.5162819844391424       0.5271837138400917       0.5378769894433126       0.548353265839236        0.5586060864382275       0.568630818514403        0.5784244154888332       0.587985204329766        0.597312696028657        0.606377432794176        0.7102536040048225       0.7163063675041209
6.999999999999999E-11    0.08226286910417209      0.08752415391838872      0.09334314467038458      0.09970208298797609      0.1065297755974477       0.11384017402748095      0.1216334800021929       0.1299934872031776       0.13882873426407558      0.14809753266507025      0.1578008542081314       0.16793147298913447      0.17853419853931118      0.18949258945958633      0.20076938991669296      0.2123511219831359       0.22420743422530354      0.236321199963678        0.2486752761338061       0.26123286861271844      0.27395603940143065      0.28671064668529095      0.2995076177191439       0.312457822353825        0.3254959287432718       0.3385640959589098       0.3516115033368221       0.3645554882085831       0.3770642258126489       0.3895633392292044       0.40201051269664057      0.41436922680070326      0.42660819944701284      0.43870085715764406      0.45062484058569313      0.4623615459049          0.4737478388586017       0.4847699271384813       0.49564140739260315      0.5063468041605967       0.5168734115936874       0.5272109658319726       0.5373513498282155       0.5472883283174603       0.5570173104307543       0.670500492161687        0.6771717502436391
8.0E-11                  0.057954298036305495     0.06223312064474475      0.06698162803708686      0.07224927950274401      0.07795206387807314      0.08411136158905351      0.09073000459021431      0.09793662553408639      0.10555760509906995      0.11360281052292642      0.12208495033705223      0.1310789530536594       0.14046431504272192      0.15023012176016468      0.16036732146403188      0.17086922107062336      0.18178552282825106      0.19296259093959608      0.20439473391726437      0.21606844654539473      0.22794874445685281      0.24003392712391425      0.25229844334978635      0.2647086768259985       0.27723061486819695      0.2896904499001264       0.30222033028815254      0.31485284295376426      0.32753080903456894      0.3402041864008257       0.35282945971375873      0.36530508686957125      0.37737500173856875      0.38941738741324605      0.4013957933314771       0.41327890868370415      0.4250400232446466       0.4366565306945618       0.44810947382656807      0.459383130251998        0.47042176894669346      0.48099240059076503      0.4914227653278518       0.5016992633006488       0.5118106991879545       0.6330452160666848       0.6402234824860156
9.0E-11                  0.040779639907201626     0.04419440257010597      0.0480093742399755       0.05228458124288056      0.056968290603405664     0.06208121100182881      0.06765159876347737      0.0737269495821343       0.08021481654128745      0.0871349295348638       0.09456574069692356      0.10243533535135821      0.11066285215041999      0.11929737857138994      0.12837546677657127      0.13784648312299425      0.14764783805476028      0.15777429358633027      0.16821990138260415      0.17903220403944695      0.19008879795750797      0.2013597113874742       0.21283508264142847      0.22448818977468799      0.23630799149167891      0.24828171920605752      0.26037933030640303      0.2725704096527746       0.28476245735689115      0.2968942786593606       0.3091288995212773       0.3214118987814796       0.3336957816522007       0.3459393251817581       0.3581069606183733       0.3699542186236392       0.38158718816773746      0.39317105004996394      0.40467565659191207      0.41607520893183425      0.4273477796337709       0.4384748793538805       0.4494410646940578       0.4602335845089364       0.4707875833988433       0.5977300022028164       0.6054615642312503
9.999999999999999E-11    0.028648138247215033     0.03134703878923617      0.034388664132194685     0.03780787325422398      0.04159613753443251      0.04577564045070317      0.05038853199637735      0.05543793879257566      0.0608978969773495       0.06679901509178633      0.07319922908506896      0.07997849270407026      0.08714804364497106      0.09481405178161617      0.10288614264781672      0.11128312242767498      0.12004923874136039      0.12922998223815566      0.13875862000181863      0.14857025215667827      0.15867500038467508      0.16906184920689626      0.17978189762829144      0.190703336671044        0.20180698853712828      0.21308407679267313      0.22450945437353703      0.23607433323923505      0.24776787433625116      0.25956296943079465      0.2714322994188808       0.2833135862883301       0.2950841353241766       0.30694666723149244      0.318850992286017        0.33075339113715774      0.34261596465617605      0.35440603217005906      0.36600822371186015      0.3772485525065708       0.38844688446630454      0.3995750624820005       0.4106089312941339       0.42152789471737834      0.4323145157777319       0.5639066935298702       0.5720319260484088
1.1E-10                  0.02008187025333885      0.022187087886472598     0.024586187972628612     0.02729653815606905      0.030338285186051323     0.03373115586371842      0.03750484210262108      0.04165697355614457      0.04619940515686085      0.051187732317916304     0.05658729751336764      0.062387753784951025     0.06863065441707732      0.07531929412365654      0.08237051465891786      0.08979388269751769      0.09771412289921504      0.10595178824665887      0.11450414848817589      0.12337793545756831      0.13266947476271934      0.14222605301932034      0.1520394336818116       0.16211429488434254      0.17245586476969074      0.1830738355507674       0.19385095691445103      0.20478446437152234      0.21586506533907893      0.22706440434264558      0.2383846740508449       0.2498092241584628       0.26131343236634264      0.2728726922162493       0.28440717191044457      0.2958510249101144       0.3073690187692332       0.31891602485857423      0.33045278015600354      0.34194527535822056      0.35336419538698455      0.36464419795542447      0.37551563560694406      0.3863465372489331       0.39711122479176664      0.5320494776112117       0.5404625291683496
1.2E-10                  0.014046846343530418     0.015672462586620764     0.017542728965423564     0.01967234279589961      0.022090459845363584     0.02481952929498006      0.02787269127484241      0.03127289556679016      0.03503483123196878      0.03919084784247062      0.043716053337565085     0.048646908533535316     0.05401025636206415      0.059757631360252854     0.06590066231185007      0.07250638057944682      0.07946420310838341      0.08677555563794795      0.09451678763841811      0.10260185264247171      0.11098450332852003      0.11966590869703989      0.12869560955669562      0.13803469879324756      0.14760243217518312      0.15740931372586286      0.1674470169199262       0.17775928796131074      0.18824769985086726      0.1988756749426926       0.2096379695689276       0.22052059742219882      0.23150086147041057      0.242584441824646        0.2537491864131679       0.26497268510737404      0.27623277537909274      0.2874016924395168       0.29854539865402924      0.309741788682937        0.32095109412692036      0.33213874252117437      0.3432748030817408       0.354333484085501        0.3652321887334803       0.5021583544468409       0.5107638362176439
1.3E-10                  0.009802425601600398     0.011047344001227751     0.012491344098073577     0.014151685407178378     0.016059399142807993     0.01823271377849981      0.020681629952975178     0.023446265561197666     0.02653809591019072      0.0299702386138402       0.03375825832992598      0.03793172848878861      0.04246743325393229      0.047386505486966324     0.052745362840192156     0.05846219287207803      0.06456229183621802      0.07111063364422349      0.07800036400407641      0.08520889147621968      0.09280804915961552      0.10079438500914119      0.10902447234505673      0.11754138025638855      0.12635836718121543      0.135509035401279        0.14486719859737757      0.15443960909138849      0.16422759650667865      0.17425207896966868      0.18448212877066936      0.19483650111883968      0.20531281709132385      0.2159033234999734       0.22658273456710526      0.23735481186785864      0.24820684848398622      0.2591184275897471       0.27006919508457433      0.28103924313995365      0.29184206997423195      0.3027035807261539       0.313595266864611        0.32448263999044624      0.3353357340436577       0.47423332403675766      0.48293584719629146
1.3999999999999998E-10   0.006820747036591699     0.007765366519761562     0.008870193012581703     0.01016143489256052      0.011655131052837931     0.013366764497224709     0.015324551745537582     0.017555457522437354     0.020069193693686857     0.02289379201110795      0.026045213506255875     0.029534187617850687     0.03337331380256764      0.037590496247738775     0.042167774741439144     0.04711062730728937      0.0524794613596017       0.058206157585645374     0.0642917163925237       0.0707952414556455       0.07763911583869364      0.08479273210836034      0.09228560854032998      0.10017467914257158      0.10828789733039547      0.11666694274493145      0.12532055222068908      0.13429674882731177      0.14346915259273416      0.15283828193794194      0.1624070822448182       0.17218056149688432      0.18217645070326077      0.192283572504551        0.20250135880159315      0.21282394997267617      0.2232330282988694       0.23372100444665483      0.244285922859489        0.25490912791680514      0.2655719093942269       0.2762558726229834       0.286845903680271        0.29739386752068586      0.30798406597959627      0.44742303478513645      0.45652095956220734
1.5E-10                  0.0047422581741210015    0.005450026105799422     0.006284601851979947     0.007277671197037875     0.008436651262604117     0.009783398723488566     0.011338998385945855     0.01312234039584038      0.0151584391004768       0.017469871529060897     0.020065897324822047     0.0229748560024211       0.026207303945833205     0.029777786552149913     0.03369470491329361      0.03798031732118415      0.04261733249738146      0.047613097319135676     0.05302558014107289      0.058765368290982736     0.06485770951617542      0.07136862410961554      0.07816903125298066      0.0852766822606871       0.09271344210036647      0.10051629325194865      0.10853780658489819      0.11679181038403712      0.1253112470465971       0.134137382590909        0.14314457463586486      0.15233389511126544      0.16170861151701682      0.17126595986250198      0.18104730343115022      0.19092899358281598      0.2009114075599446       0.21098987380006567      0.2211512156105873       0.23137968604789452      0.24168091138760672      0.2520377683442143       0.2624330163723041       0.2728496460622487       0.28323767399799216      0.422013670668374        0.4311929046715873
1.6E-10                  0.0032909654574805602    0.003818139462388875     0.004450451603974874     0.005207958498713906     0.006094309797222506     0.007144703255067193     0.008371714111277694     0.00979257011437461      0.011436142405308393     0.013309794182956582     0.015443866722080302     0.017856937679648067     0.02055372464234517      0.023569679656423755     0.026909559835836074     0.030580018478908247     0.03459359521393347      0.03897290060013839      0.043686104567534585     0.04875268688508381      0.05422120303422315      0.06000447301879329      0.06611497073008185      0.0726412357870788       0.07942520789548918      0.08650267721244573      0.09392600277106491      0.10163923932962556      0.10957384537634747      0.11772884626710672      0.1261441691087971       0.13483392403038463      0.14369270270086698      0.15272143667867516      0.1619227859207464       0.17129473341413232      0.18087787485233447      0.19055244395191037      0.20031910064674546      0.2101738096745457       0.22010639244145533      0.23009701687791406      0.24015548306163353      0.25026599241350683      0.2604126080858473       0.3981666354692951       0.4073513814561927
1.6999999999999998E-10   0.00228514678402391      0.002673043271331799     0.00314631125378477      0.003719540093783718     0.004401350397832401     0.0052137691988075755    0.006169107927639923     0.007294879742424602     0.008609619856765092     0.010127914669996317     0.01187511379800129      0.013858035311669403     0.01610696539537934      0.018641872921958264     0.02146624385958982      0.024605782241351966     0.02806869049209092      0.03185962976505689      0.03599331393405987      0.04046956200502287      0.045275055337673835     0.05045230369476256      0.05596842625581833      0.06180116045294305      0.06797363936521346      0.07450568315383305      0.08129233633981277      0.08834420996311823      0.09575867101082036      0.10340597148204916      0.1112655742331471       0.11933556988854786      0.12766931670192141      0.13623454245457675      0.14495906460465513      0.15384319060547574      0.16288837793199135      0.17210042945811005      0.18149939404244617      0.19098246859621926      0.20055012383412146      0.21019855638954144      0.21991852813709087      0.22969018567714114      0.2395243477642729       0.3758819291878996       0.38499638991602364
1.8E-10                  0.0015853256150361755    0.0018735366357254535    0.002225902094285165     0.00265490184759708      0.003173599009631303     0.0037969201642238143    0.004546339961095223     0.00543167641999069      0.006471266258901007     0.007694108000902591     0.009112161417518609     0.010746671160486203     0.012610525902444006     0.014724680894934962     0.017114408133075614     0.019781259332563354     0.0227515267456923       0.02603487822889354      0.029634285439817405     0.03355624641122529      0.03782301493733284      0.04240882812898024      0.04731746986557278      0.05260439226907863      0.058187793537404164     0.0640806520616093       0.0703403225058636       0.07686894492972415      0.08365854481764776      0.09070451430251077      0.09811968750676123      0.10570987440301906      0.1135049397229299       0.12150156654490904      0.12976910608994352      0.13822043948710372      0.1468228883989524       0.1555758386874923       0.16447922773118115      0.17355142372941712      0.18277854415112627      0.19208366720507533      0.20146676628501142      0.2109239940973645       0.22044532129116734      0.35482375283060785      0.3641279300510801
1.9E-10                  0.0011018752036032213    0.0013122537494278377    0.0015732689085340634    0.0018975038381168158    0.0022900185328972008    0.0027637824765881502    0.0033457157454489673    0.00403689627978077      0.004865075360251841     0.005836639935816747     0.006983466925198981     0.008319212244585794     0.009857185115747284     0.011625507759681748     0.013627894807692106     0.015890574788564808     0.01843303188302754      0.021255304165588858     0.024383768797553468     0.027817328898086333     0.031565316347617674     0.03563537410723093      0.04003398880557891      0.04473865411041556      0.04977752488506246      0.05515966146299922      0.060824315243615014     0.0667854779774881       0.07311294766986168      0.07965921022385047      0.08646003469921278      0.09355149897595327      0.10092572360602763      0.10846731054989217      0.11620700042711318      0.12413988174739736      0.132350365194983        0.1406974679737965       0.14918842280607467      0.15782154761503192      0.16659515470955624      0.17554238548692314      0.18460868232063304      0.19374772715786726      0.20295881991279577      0.3346123923940606       0.3438914889235538
1.9999999999999998E-10   7.720589947713051E-4     9.240575639784449E-4     0.0011138015802389487    0.0013548701277386198    0.0016507991213779954    0.002014442639378086     0.0024624824658555783    0.0029992320609185654    0.003651805996151949     0.004427291739615154     0.005351881465911651     0.006430263933904107     0.007697270842951704     0.009162452496077621     0.010845254367428718     0.012756716690767712     0.014916265199287862     0.0173467546541786       0.020048507417663796     0.02304090403122099      0.026335582775841724     0.029932108846620946     0.03383500149405886      0.038065232688482525     0.04259169923737405      0.04742445039986164      0.05261204957656924      0.0580731838379171       0.06382067676184984      0.0698980716317901       0.07624901408432766      0.08282023183306769      0.08963888571604345      0.0967778256000928       0.10411103124347375      0.11161189224350922      0.11930403633323591      0.12721341356852056      0.1353385581819977       0.1435901563923518       0.15197878570675882      0.16050166395808652      0.1691555242756978       0.17798816167105885      0.1869035607759864       0.3156254923763281       0.32479886280686265
2.1E-10                  5.440201959176383E-4     6.547776991335465E-4     7.943982249616823E-4     9.715359591831933E-4     0.0011910140986149398    0.001466736396059337     0.0018124551005617526    0.00223078588263953      0.0027391383844763743    0.003354617598838778     0.0040940828495451284    0.00497231642067394      0.006003533224006735     0.007214523684132632     0.008617780192527912     0.010227925789134815     0.012067660086547412     0.014141271421514237     0.01647684036517271      0.019076609435435134     0.021955437584267237     0.025128520675910794     0.02859316814804107      0.032357243293224244     0.036428774256994964     0.04080683361274545      0.045472084137891736     0.05046052548688488      0.055755401402734814     0.061309906338572195     0.06715809053060104      0.07332235226586714      0.07970502184387204      0.08630711712694895      0.09318791462403284      0.10032293044640381      0.10762320619058646      0.11509024202128869      0.1227412720254415       0.13063314068395007      0.1386734918447003       0.14683733429088477      0.1551315019202661       0.16355216036882284      0.17210843063639367      0.2978630527774102       0.30687129340599095