% Model:              Estacionari, recreació gràfic k_eff vs T amb Fourier vs KCM.mph
% Version:            COMSOL 5.4.0.388
% Date:               Jul 27 2024, 20:30
% Dimension:          1
% Nodes:              7
% Expressions:        1
% Description:        Global
% T                       k_eff
50                        111.34494135063446
100                       232.6725929172758
150                       216.53870631940796
200                       173.61687387855872
250                       140.1842565903895
300                       116.80274006383402
350                       100.06806625180069
